% Model:              RWGS_demo_CeO2_cycle2_CO2.mph
% Version:            COMSOL 5.6.0.341
% Date:               Jun 28 2022, 11:41
% Dimension:          1
% Nodes:              1386
% Expressions:        1
% Description:        Dependent variable u2
% X                       u2 (1) @ t=404.35
0                         0.018781985412386598
1.0106389363155493E-5     0.018781882092981775
2.0404507952446597E-5     0.01878156713600885
3.0897993080352014E-5     0.018781032112085934
4.159055106313618E-5      0.018780268442534047
5.248595852992239E-5      0.018779267404307676
6.358806375660837E-5      0.018778020135470388
7.490078802507985E-5      0.018776517641229583
8.642812700821763E-5      0.018774750800548457
9.817415218117173E-5      0.01877271037334708
1.1014301225941769E-4     0.018770387008304808
1.2233893466408478E-4     0.018767771251275753
1.347662270150932E-4      0.01876485355432611
1.4742927865260753E-4     0.01876162428539855
1.6033256218736384E-4     0.018758073738610437
1.734806350803981E-4      0.018754192145185953
1.868781412527545E-4      0.018749969685023467
2.0052981272572078E-4     0.018745396498893223
2.1444047129218845E-4     0.01874046270126036
2.286150302197191E-4      0.018735158393723226
2.4305849598591723E-4     0.01872947367905442
2.577759700467249E-4      0.01872339867582871
2.7277265063826804E-4     0.018716923533618715
2.8805383461287775E-4     0.0187100384487325
3.0362491930995233E-4     0.018702733680469742
3.194914044623004E-4      0.018694999567862587
3.3565889413866205E-4     0.0186868265468671
3.521330987230691E-4      0.018678205167967636
3.6891983693176727E-4     0.018669126114149344
3.860250378683926E-4      0.01865958021919367
4.034547431181436E-4      0.018649558486246748
4.212151088816756E-4      0.018639052106604596
4.3931240814948575E-4     0.018628052478659445
4.577530329175384E-4      0.018616551226944986
4.7654349644493264E-4     0.01860454022121569
4.956904355543938E-4      0.01859201159549369
5.152006129764119E-4      0.018578957767013033
5.350809197378479E-4      0.018565371454986726
5.553383775958558E-4      0.0185512456991251
5.759801415179802E-4      0.01853657387782684
5.970135022093011E-4      0.01852134972596415
6.184458886875241E-4      0.018505567352186225
6.402848709069204E-4      0.01848922125565916
6.625381624320483E-4      0.01847230634216379
6.852136231621974E-4      0.018454817939473483
7.083192621075152E-4      0.018436751811933216
7.318632402178076E-4      0.018418104174163077
7.558538732649938E-4      0.018398871703813637
7.802996347802566E-4      0.01837905155329856
8.052091590469014E-4      0.018358641360438147
8.30591244150007E-4       0.018337639257946535
8.564548550839145E-4      0.01831604388170106
8.82809126918689E-4       0.018293854377737527
9.096633680266289E-4      0.018271070407918127
9.370270633700102E-4      0.01824769215422574
9.649098778511818E-4      0.018223720321642795
9.933216597262328E-4      0.018199156139579335
0.0010222724440834042     0.018174001361822296
0.0010517724563875073     0.01814825826498196
0.0010818321160915663     0.018121929645422717
0.0011124620403169952     0.018095018814667983
0.0011436730476035732     0.01806752959327907
0.0011754761617305807     0.018039466303215287
0.0012078826156104062     0.0180108337586886
0.0012409038552560392     0.01798163725553511
0.0012745515438238114     0.01795188255913148
0.0013088375657328527     0.01792157589089522
0.0013437740308626775     0.01789072391341064
0.001379373278830424      0.017859333714233414
0.0014156478833492168     0.017827412788431283
0.0014526106566692355     0.01779496901992651
0.0014902746541030096     0.01776201066171204
0.001528653178636588      0.017728546315018315
0.001567759785628165      0.017694584907515565
0.0016076082875958668     0.017660135670640217
0.001648212759096342      0.017625208116138952
0.0016895875416959344     0.017589812011930453
0.00173174724903613       0.017553957357386588
0.0017747067719951367     0.01751765435813756
0.0018184812839473516     0.01748091340051374
0.0018630862461226372     0.01744374502573086
0.001908537413067235      0.01740615990393428
0.0019548508382083176     0.017368168808215748
0.002002042879524067      0.01732978258871483
0.0020501302053213557     0.017291012146921778
0.002099129800123006      0.01725186841029165
0.0021490589706667624     0.017212362307282538
0.0021999353520180506     0.017172504742925594
0.0022517769137987234     0.01713230657503245
0.002304601966533948      0.01709177859114184
0.0023584291681195226     0.01705093148630235
0.0024132775304118725     0.017009775841783627
0.0024691664259430686     0.016968322104801804
0.002526115594763242      0.01692658056933949
0.0025841451514127954     0.016884561358133675
0.0026432755920268976     0.01684227440589601
0.002703527801574751      0.016799729443824355
0.002764923061236195      0.01675693598545415
0.0028274830559182557     0.016713903313891422
0.00289122988191429       0.01667064047045729
0.0029561860547084357     0.016627156244768543
0.0030223745169281136     0.016583459166266558
0.003089818646447403      0.016539557497198834
0.003158542264644146      0.01649545922704715
0.0032285696448136974     0.01645117206838781
0.0032999255207422887     0.016406703454160974
0.0033726350954430555     0.016362060536315153
0.0034467240500577574     0.016317250185786475
0.003522218552927433      0.016272278993763812
0.003599145268835073      0.01622715327418284
0.0036775313684236813     0.016181879067384948
0.0037574045377929835     0.01613646214487299
0.003838792988278208      0.016090908015085385
0.003921725466414371      0.01604522193011259
0.004006231264089606      0.015999408893267134
0.004092340228891101      0.015953473667424674
0.004180082774647326      0.01590742078404248
0.004269489892170224      0.015861254552766327
0.004360593160201255      0.015814979071534938
0.004453424756565013      0.01576859823708957
0.004548017469534537      0.01572211575579937
0.004644404709412129      0.015675535154714627
0.004742620520329984      0.015628859792762916
0.004842699592274587      0.015582092872006622
0.004944677273339301      0.015535237448883585
0.005048589582209357      0.0154882964453591
0.005154473220883726      0.015441272659921158
0.0052623655876383145     0.015394168778356648
0.005372304790235109      0.015346987384253087
0.005484329659381879      0.015299730969175439
0.005598479762447276      0.015252401942474523
0.005714795417436066      0.015205002640690097
0.005833317707229548      0.015157535336516748
0.00595408849409604       0.01511000224730908
0.006077150434476774      0.015062405543105978
0.006202546994052162      0.015014747354162299
0.006330322463093984      0.01496702977797918
0.006460521972108746      0.014919254885831412
0.00659319150777789       0.01487142472879345
0.006728377929200352      0.014823541343269495
0.006866128984443262      0.014775606756039656
0.007006493327406631      0.014727622988833088
0.007149520535008036      0.014679592062445353
0.007295261124693224      0.014631516000417686
0.007443766572278972      0.014583396832297615
0.0075950893301344235     0.014535236596503725
0.007749282845707362      0.014487037342814108
0.007906401580401956      0.014438801134503316
0.008066501028814552      0.014390530050148998
0.008229637738334539      0.01434222618513192
0.008395869329116918      0.014293891652851373
0.008565254514433877      0.01424552858567531
0.008737853121412379      0.014197139135649121
0.00891372611216523       0.014148725474979536
0.009092935605322993      0.014100289796314149
0.009275544897974377      0.014051834312832006
0.009461618488022898      0.014003361258162726
0.0096512220969676        0.013954872886147607
0.009844422693116056      0.013906371470456102
0.010041288515237641      0.013857859304071348
0.010241889096665605      0.013809338698653494
0.010446295289856316      0.013760811983791987
0.010654579291414537      0.013712281506155962
0.01086681466759332       0.01366374962854933
0.011083076380277765      0.013615218728878976
0.011303440813461654      0.013566691199040828
0.011527985800226445      0.013518169443731291
0.011756790650231993      0.013469655879186727
0.011989936177728904      0.013421152931856866
0.012227504730102211      0.01337266303701633
0.012469580216956665      0.013324188637316577
0.012716248139753668      0.01327573218128237
0.012967595622010634      0.013227296121756157
0.013223711440073031      0.013178882914291961
0.013484686054470478      0.01313049501550273
0.0137506116418674        0.013082134881362966
0.014021582127620119      0.013033804965468805
0.014297693218951352      0.012985507717258933
0.014579042438754188      0.012937245580197404
0.014865729160037349      0.012889020989921696
0.015157854641023871      0.012840836372357714
0.015455522060915708      0.012792694141804405
0.01575883655633677       0.01274459669898986
0.01606790525846737       0.012696546429101736
0.01638283733088312       0.01264854569979415
0.016703744008111702      0.012600596859173033
0.017030738634921067      0.012552702233763695
0.017363936706353007      0.012504864126461348
0.017703455908516193      0.012457084814468155
0.0180494161601531        0.012409366547219544
0.0184019396549955        0.012361711544301459
0.018761150904923512      0.012314121993361741
0.019127176783943392      0.012266600048018661
0.01950014657299961       0.012219147825768426
0.01988019200563711       0.012171767405894613
0.020267447314529882      0.012124460827382909
0.020662049278892043      0.012077230086842968
0.0210641372727886        0.012030077136440331
0.021473853314362502      0.011983003881842107
0.02189134211599576       0.011936012180177768
0.02231675113542203       0.011889103838018427
0.022750230627808996      0.011842280609377462
0.023191933698828673      0.0117955441937354
0.023642016358734662      0.011748896234090932
0.02410063757746515       0.011702338315041534
0.024567959340791402      0.011655871960895924
0.02504414670753141       0.011609498633821016
0.025529367867848915      0.011563219732026165
0.026023794202658435      0.01151703658798668
0.0265276003441573        0.011470950466709708
0.027040964237506085      0.011424962564044152
0.027564067203679096      0.011379074005037461
0.028097094003507184      0.011333285842341452
0.028640232902935624      0.011287599054668829
0.029193675739519993      0.011242014545302926
0.029757617990183453      0.01119653314066249
0.030332258840259585      0.011151155588923226
0.030917801253844857      0.011105882558697662
0.03151445204548606       0.01106071463777529
0.0321224219532273        0.011015652331924506
0.03274192571304337       0.01097069606375689
0.03337318213468445       0.010925846171656093
0.034016414178960425      0.01088110290877148
0.034671849036490704      0.01083646644207796
0.03533971820794866       0.010791936851502502
0.036020257585827664      0.010747514129118358
0.0367137075377591        0.010703198178406594
0.037420312991410284      0.01065898881358587
0.03814032352099341       0.010614885759010768
0.038873993435415755      0.010570888648637679
0.03962158186810175       0.010526997025558975
0.040383352868519594      0.01048321034160455
0.04115957549544353       0.010439527957010572
0.04195052391198639       0.01039594914015417
0.04275647748243413       0.010352473067353755
0.04357772087091786       0.010309098822733703
0.04441454414195746       0.010265825398152245
0.04526724286291324       0.010222651693191448
0.04613611820838059       0.01017957651520731
0.04702147706656539       0.010136598579438999
0.047923632147677225      0.010093716509175774
0.04884290209437953       0.010050928835978395
0.049779611594334486      0.010008233999955431
0.050734091494883254      0.00996563035009029
0.0517066789199017        0.009923116144618545
0.052697704137735224      0.009880690112311673
0.0536972623407794        0.009838775275878547
0.05469682054382358       0.00979770524152134
0.05569637874686775       0.009757446966228236
0.05669593694991193       0.009717968823397982
0.057695495152956106      0.009679240792155965
0.05869505335600028       0.009641234425929995
0.05969461155904446       0.009603922767577378
0.060694169762088634      0.009567280256083836
0.06169372796513281       0.009531282636552126
0.06269328616817699       0.009495906876161237
0.06369284437122116       0.00946113108636117
0.06469240257426534       0.009426934450959998
0.06569196077730952       0.00939329715963531
0.06669151898035369       0.009360200346406746
0.06769107718339787       0.009327626032640444
0.06869063538644204       0.009295557074198511
0.06969019358948622       0.009263977112379307
0.0706897517925304        0.009232870528333385
0.07168930999557457       0.009202222400665788
0.07268886819861875       0.009172018465965558
0.07368842640166293       0.009142245082026955
0.0746879846047071        0.009112889193546359
0.07568754280775128       0.009083938300101853
0.07668710101079546       0.009055380426237963
0.07768665921383963       0.009027204093492912
0.07868621741688381       0.00899939829422246
0.07968577561992798       0.008971952467084791
0.08068533382297216       0.008944856474063706
0.08168489202601634       0.008918100578917214
0.08268445022906051       0.0088916754269487
0.08368400843210469       0.008865572026005571
0.08468356663514887       0.008839781728618514
0.08568312483819304       0.008814296215201453
0.08668268304123722       0.008789107478238845
0.0876822412442814        0.008764207807392344
0.08868179944732557       0.008739589775464249
0.08968135765036975       0.008715246225160938
0.09068091585341392       0.008691170256602359
0.0916804740564581        0.00866735521552867
0.09268003225950228       0.00864379468215852
0.09367959046254645       0.008620482460657587
0.09467914866559063       0.008597412569177182
0.0956787068686348        0.008574579230427875
0.09667826507167898       0.008551976862754457
0.09767782327472316       0.008529600071680304
0.09867738147776733       0.008507443641893524
0.09967693968081151       0.008485502529647058
0.10067649788385569       0.008463771855547756
0.10167605608689986       0.008442246897712096
0.10267561428994404       0.008420923085265694
0.10367517249298822       0.008399795992166673
0.10467473069603239       0.008378861331334836
0.10567428889907657       0.00835811494906798
0.10667384710212074       0.00833755281972939
0.10767340530516492       0.008317171040691188
0.1086729635082091        0.00829696582751879
0.10967252171125327       0.008276933509383372
0.11067207991429745       0.00825707052469014
0.11167163811734163       0.008237373416909048
0.1126711963203858        0.008217838830598664
0.11367075452342998       0.00819846350761218
0.11467031272647416       0.008179244283475204
0.11566987092951833       0.008160178083927192
0.11666942913256251       0.008141261921616922
0.11766898733560668       0.008122492892944994
0.11866854553865086       0.008103868175044854
0.11966810374169504       0.00808538502289569
0.12066766194473921       0.008067040766560707
0.12166722014778339       0.008048832808543365
0.12266677835082757       0.008030758621256887
0.12366633655387174       0.008012815744600726
0.12466589475691592       0.007995001783639094
0.1256654529599601        0.007977314406375623
0.12666501116300427       0.007959751341621055
0.12766456936604845       0.007942310376947526
0.12866412756909262       0.007924989356727023
0.1296636857721368        0.007907786180249395
0.13066324397518098       0.007890698799915068
0.13166280217822515       0.00787372521950078
0.13266236038126933       0.007856863492493635
0.1336619185843135        0.007840111720491007
0.13466147678735768       0.007823468051662612
0.13566103499040186       0.00780693067927238
0.13666059319344603       0.007790497840257537
0.1376601513964902        0.007774167813861628
0.1386597095995344        0.007757938920319934
0.13965926780257856       0.007741809519594255
0.14065882600562274       0.0077257780101551285
0.14165838420866692       0.007709842827809488
0.1426579424117111        0.007694002444571794
0.14365750061475527       0.007678255367576537
0.14465705881779944       0.007662600138030353
0.14565661702084362       0.007647035330202464
0.1466561752238878        0.007631559550451115
0.14765573342693197       0.0076161714362853045
0.14865529162997615       0.00760086965545944
0.14965484983302033       0.007585652905100411
0.1506544080360645        0.007570519910865119
0.15165396623910868       0.00755546942612736
0.15265352444215285       0.007540500231193176
0.15365308264519703       0.007525611132542989
0.1546526408482412        0.0075108009620997885
0.15565219905128538       0.007496068576522338
0.15665175725432956       0.007481412856522252
0.15765131545737374       0.007466832706203868
0.1586508736604179        0.007452327052426469
0.1596504318634621        0.007437894844187652
0.16064999006650627       0.007423535052026765
0.16164954826955044       0.00740924666744835
0.16264910647259462       0.007395028702364276
0.1636486646756388        0.007380880188553705
0.16464822287868297       0.007366800177140859
0.16564778108172715       0.00735278773808936
0.16664733928477132       0.007338841959712753
0.1676468974878155        0.007324961948200481
0.16864645569085968       0.007311146827158787
0.16964601389390385       0.007297395737166182
0.17064557209694803       0.007283707835342533
0.1716451302999922        0.007270082294931779
0.17264468850303638       0.007256518304897132
0.17364424670608056       0.0072430150695290945
0.17464380490912473       0.007229571808065188
0.1756433631121689        0.007216187754321216
0.1766429213152131        0.0072028621563336725
0.17764247951825726       0.007189594276012946
0.17864203772130144       0.007176383388806764
0.17964159592434562       0.007163228783373618
0.1806411541273898        0.00715012976126586
0.18164071233043397       0.007137085636622148
0.18264027053347814       0.007124095735868755
0.18363982873652232       0.007111159397429619
0.1846393869395665        0.007098275971444758
0.18563894514261067       0.007085444819496715
0.18663850334565485       0.007072665314344844
0.18763806154869903       0.007059936839667266
0.1886376197517432        0.007047258789809899
0.18963717795478738       0.007034630569542824
0.19063673615783155       0.007022051593823116
0.19163629436087573       0.007009521287564643
0.1926358525639199        0.0069970390854139555
0.19363541076696408       0.0069846044315325494
0.19463496897000826       0.006972216779384959
0.19563452717305244       0.006959875591532716
0.1966340853760966        0.006947580339433896
0.1976336435791408        0.006935330503247959
0.19863320178218496       0.00692312557164612
0.19963275998522914       0.006910965041626388
0.20063231818827332       0.006898848418333847
0.2016318763913175        0.0068867752148856435
0.20263143459436167       0.006874744952200463
0.20363099279740585       0.006862757158832476
0.20463055100045002       0.006850811370809898
0.2056301092034942        0.006838907131477351
0.20662966740653838       0.006827043991342469
0.20762922560958255       0.006815221507926673
0.20862878381262673       0.006803439245619301
0.2096283420156709        0.006791696775535851
0.21062790021871508       0.00677999367537966
0.21162745842175926       0.006768329529307077
0.21262701662480343       0.006756703927796078
0.2136265748278476        0.006745116467518015
0.21462613303089179       0.006733566751212795
0.21562569123393596       0.006722054387566918
0.21662524943698014       0.006710578991094748
0.21762480764002431       0.006699140182022424
0.2186243658430685        0.006687737586174932
0.21962392404611267       0.006676370834865634
0.22062348224915684       0.006665039564788652
0.22162304045220102       0.006653743417913744
0.2226225986552452        0.006642482041383763
0.22362215685828937       0.0066312550874145695
0.22462171506133355       0.00662006221319732
0.22562127326437773       0.006608903080802956
0.2266208314674219        0.006597777357089129
0.22762038967046608       0.0065866847136092106
0.22861994787351025       0.006575624826523432
0.22961950607655443       0.006564597376512061
0.2306190642795986        0.00655360204869068
0.23161862248264278       0.006542638532527314
0.23261818068568696       0.00653170652176162
0.23361773888873114       0.006520805714325691
0.2346172970917753        0.006509935812266792
0.2356168552948195        0.006499096521671976
0.23661641349786366       0.006488287552594132
0.23761597170090784       0.006477508618979905
0.23861552990395202       0.006466759438599088
0.2396150881069962        0.006456039732975791
0.24061464631004037       0.006445349227320867
0.24161420451308455       0.006434687650465992
0.24261376271612872       0.006424054734799258
0.2436133209191729        0.006413450216202009
0.24461287912221708       0.00640287383398706
0.24561243732526125       0.006392325330838603
0.24661199552830543       0.006381804452752894
0.2476115537313496        0.0063713109489805
0.24861111193439378       0.006360844571969912
0.24961067013743796       0.006350405077312044
0.25061022834048213       0.006339992223686152
0.2516097865435263        0.006329605772806791
0.25260934474657043       0.006319245489372054
0.2536089029496146        0.006308911141012565
0.2546084611526587        0.006298602498241907
0.2556080193557029        0.006288319334407882
0.256607577558747         0.006278061425644802
0.2576071357617912        0.00626782855082686
0.2586066939648353        0.006257620491522305
0.25960625216787947       0.0062474370319487525
0.2606058103709236        0.006237277958929249
0.26160536857396777       0.006227143061849262
0.2626049267770119        0.006217032132614681
0.26360448498005606       0.006206944965610438
0.2646040431831002        0.006196881357660096
0.26560360138614436       0.0061868411079863805
0.2666031595891885        0.006176824018172185
0.26760271779223266       0.006166829892122598
0.2686022759952768        0.006156858536027571
0.26960183419832096       0.006146909758325388
0.2706013924013651        0.0061369833696668374
0.27160095060440925       0.00612707918288009
0.2726005088074534        0.006117197012936163
0.27360006701049755       0.00610733667691522
0.2745996252135417        0.006097497993973447
0.27559918341658585       0.006087680785310504
0.27659874161963          0.006077884874137733
0.27759829982267414       0.006068110085646889
0.2785978580257183        0.0060583562469794724
0.27959741622876244       0.006048623187196694
0.2805969744318066        0.00603891073724999
0.28159653263485074       0.0060292187299519
0.2825960908378949        0.006019546999947958
0.28359564904093904       0.0060098953836886515
0.2845952072439832        0.006000263719402146
0.28559476544702733       0.005990651847067305
0.2865943236500715        0.005981059608387577
0.28759388185311563       0.00597148684676506
0.2885934400561598        0.005961933407274977
0.2895929982592039        0.005952399136641024
0.2905925564622481        0.005942883883210693
0.2915921146652922        0.005933387496931399
0.29259167286833637       0.005923909829326902
0.2935912310713805        0.0059144507334740765
0.29459078927442467       0.005905010063980247
0.2955903474774688        0.005895587676960858
0.29658990568051297       0.005886183430017525
0.2975894638835571        0.005876797182216595
0.29858902208660126       0.005867428794067873
0.2995885802896454        0.005858078127503889
0.30058813849268956       0.005848745045859572
0.3015876966957337        0.005839429413852131
0.30258725489877786       0.005830131097561331
0.303586813101822         0.005820849964410159
0.30458637130486615       0.005811585883145878
0.3055859295079103        0.005802338723821269
0.30658548771095445       0.005793108357776259
0.3075850459139986        0.005783894657619938
0.30858460411704275       0.00577469749721273
0.3095841623200869        0.005765516751649052
0.31058372052313105       0.0057563522972401
0.3115832787261752        0.005747204011497073
0.31258283692921934       0.005738071773114533
0.3135823951322635        0.005728955461954165
0.31458195333530764       0.005719854959028813
0.3155815115383518        0.0057107701464867
0.31658106974139594       0.005701700907595813
0.3175806279444401        0.0056926471267289384
0.31858018614748423       0.005683608689348559
0.3195797443505284        0.005674585481992059
0.32057930255357253       0.005665577392257443
0.3215788607566167        0.0056565843087889225
0.32257841895966083       0.005647606121262912
0.323577977162705         0.0056386427203744035
0.3245775353657491        0.005629693997823259
0.3255770935687933        0.00562075984630093
0.3265766517718374        0.00561184015947739
0.32757620997488157       0.005602934831988029
0.3285757681779257        0.005594043759421274
0.32957532638096987       0.0055851668383057945
0.330574884584014         0.005576303966098353
0.33157444278705817       0.0055674550411716536
0.3325740009901023        0.005558619962802432
0.33357355919314646       0.0055497986311597415
0.3345731173961906        0.0055409909472934156
0.33557267559923476       0.005532196813122666
0.3365722338022789        0.00552341613142498
0.33757179200532306       0.005514648805825037
0.3385713502083672        0.005505894740783853
0.33957090841141135       0.005497153841588231
0.3405704666144555        0.005488426014340155
0.34157002481749965       0.005479711165946441
0.3425695830205438        0.005471009204108562
0.34356914122358795       0.0054623200373127255
0.3445686994266321        0.005453643574819802
0.34556825762967625       0.005444979726655719
0.3465678158327204        0.005436328403601857
0.34756737403576454       0.005427689517185672
0.3485669322388087        0.005419062979671296
0.34956649044185284       0.005410448704050391
0.350566048644897         0.005401846604033212
0.35156560684794114       0.005393256594039684
0.3525651650509853        0.005384678589190579
0.35356472325402943       0.005376112505299021
0.3545642814570736        0.005367558258861833
0.35556383966011773       0.005359015767051333
0.3565633978631619        0.005350484947706935
0.35756295606620603       0.005341965719327165
0.3585625142692502        0.00533345800106149
0.3595620724722943        0.005324961712702556
0.3605616306753385        0.005316476774678317
0.3615611888783826        0.005308003108044374
0.36256074708142677       0.005299540634476539
0.3635603052844709        0.005291089276263188
0.36455986348751507       0.005282648956298059
0.3655594216905592        0.005274219598073009
0.36655897989360336       0.005265801125670745
0.3675585380966475        0.0052573934637578715
0.36855809629969166       0.005248996537578097
0.3695576545027358        0.0052406102729451445
0.37055721270577996       0.0052322345962361565
0.3715567709088241        0.005223869434384944
0.37255632911186826       0.00521551471487554
0.3735558873149124        0.0052071703657356645
0.37455544551795655       0.005198836315530366
0.3755550037210007        0.005190512493355715
0.37655456192404485       0.005182198828832623
0.377554120127089         0.005173895252100713
0.37855367833013315       0.005165601693812305
0.3795532365331773        0.005157318085126349
0.38055279473622144       0.005149044357702694
0.3815523529392656        0.005140780443696263
0.38255191114230974       0.0051325262757513
0.3835514693453539        0.005124281786995715
0.38455102754839804       0.005116046911035604
0.3855505857514422        0.005107821581949681
0.38655014395448634       0.005099605734283809
0.3875497021575305        0.005091399303045847
0.38854926036057463       0.005083202223700175
0.3895488185636188        0.005075014432162628
0.39054837676666293       0.005066835864795242
0.3915479349697071        0.0050586664584012665
0.3925474931727512        0.005050506150220186
0.3935470513757954        0.005042354877922673
0.3945466095788395        0.005034212579605717
0.3955461677818837        0.0050260791937880005
0.3965457259849278        0.005017954659404928
0.39754528418797197       0.0050098389158040185
0.3985448423910161        0.005001731902740333
0.39954440059406027       0.004993633560371765
0.4005439587971044        0.004985543829254624
0.40154351700014856       0.0049774626503392636
0.4025430752031927        0.004969389964965489
0.40354263340623686       0.004961325714858314
0.404542191609281         0.004953269842123667
0.40554174981232516       0.004945222289244193
0.4065413080153693        0.004937182999074962
0.40754086621841346       0.004929151914839398
0.4085404244214576        0.004921128980125266
0.40953998262450175       0.004913114138880506
0.4105395408275459        0.004905107335409313
0.41153909903059005       0.004897108514368248
0.4125386572336342        0.004889117620762325
0.41353821543667835       0.004881134599941113
0.4145377736397225        0.0048731593975949086
0.41553733184276664       0.0048651919597512625
0.4165368900458108        0.00485723223277092
0.41753644824885494       0.0048492801633444015
0.4185360064518991        0.004841335698488307
0.41953556465494324       0.004833398785541729
0.4205351228579874        0.0048254693721627075
0.42153468106103154       0.004817547406324901
0.4225342392640757        0.004809632836313912
0.42353379746711983       0.004801725610724006
0.424533355670164         0.004793825678454743
0.42553291387320813       0.004785932988707626
0.4265324720762523        0.004778047490982887