% Model:              RWGS_demo_CeO2_cycle2_CO2.mph
% Version:            COMSOL 5.6.0.341
% Date:               Jun 28 2022, 11:42
% Dimension:          1
% Nodes:              1386
% Expressions:        6
% Description:        Dependent variable u2
% X                       u2 (1) @ t=0             u2 (1) @ t=80            u2 (1) @ t=160           u2 (1) @ t=240           u2 (1) @ t=320           u2 (1) @ t=404.35
0                         0.11699421886554416      0.10763000651145896      0.1004197602564107       0.091776034812821        0.0791920370638268       0.018781985412386598
1.0106389363155493E-5     0.1168955630468654       0.10762919070982646      0.10041908259821339      0.09177541191338937      0.0791914413504286       0.018781882092981775
2.0404507952446597E-5     0.11679540375634126      0.10762670392533406      0.10041701685759474      0.09177351308688717      0.07918962540021968      0.01878156713600885
3.0897993080352014E-5     0.11669372407684658      0.10762247988514376      0.10041350781071956      0.09177028754062169      0.07918654064753962      0.018781032112085934
4.159055106313618E-5      0.11659050707747104      0.1076164513588542       0.1004084993029391       0.0917656836017827       0.07918213769270355      0.018780268442534047
5.248595852992239E-5      0.11648573583674421      0.10760855022622787      0.10040193428666983      0.091759648748837        0.07917636633277148      0.018779267404307676
6.358806375660837E-5      0.11637939344993223      0.10759870755110429      0.10039375486314289      0.09175212964621952      0.07916917559549116      0.018778020135470388
7.490078802507985E-5      0.11627146303652477      0.10758685366163728      0.10038390232813388      0.09174307218241688      0.07916051377650318      0.018776517641229583
8.642812700821763E-5      0.11616192774791603      0.10757291823696086      0.10037231722176936      0.09173242151152339      0.07915032847987419      0.018774750800548457
9.817415218117173E-5      0.11605077077528109      0.10755683040037607      0.10035893938248988      0.09172012209834068      0.07913856666202813      0.01877271037334708
1.1014301225941769E-4     0.1159379753576408       0.10753851881911075      0.10034370800524875      0.09170611776709117      0.0791251746791421       0.018770387008304808
1.2233893466408478E-4     0.11582352479011665      0.10751791181067201      0.1003265617039999       0.09169035175379339      0.07911009833803058      0.018767771251275753
1.347662270150932E-4      0.11570740243237382      0.10749493745577274      0.10030743857851997      0.09167276676233643      0.07909328295057608      0.01876485355432611
1.4742927865260753E-4     0.11558959171724639      0.10746952371777847      0.10028627628559617      0.09165330502428949      0.07907467339171002      0.01876162428539855
1.6033256218736384E-4     0.11547007615955013      0.10744159856857148      0.10026301211457816      0.09163190836245694      0.07905421416095743      0.018758073738610437
1.734806350803981E-4      0.11534883936506984      0.10741109012067585      0.10023758306729241      0.09160851825817087      0.07903184944753672      0.018754192145185953
1.868781412527545E-4      0.11522586503972286      0.10737792676545395      0.10020992594227669      0.0915830759223083       0.07900752319899101      0.018749969685023467
2.0052981272572078E-4     0.11510113699889882      0.10734203731710917      0.10017997742328862      0.09155552236999559      0.0789811791933024       0.018745396498893223
2.1444047129218845E-4     0.11497463917696255      0.10730335116218764      0.10014767417200014      0.09152579849894069      0.07895276111444356      0.01874046270126036
2.286150302197191E-4      0.11484635563692336      0.10726179841420366      0.1001129529247725       0.09149384517132196      0.07892221263126753      0.018735158393723226
2.4305849598591723E-4     0.11471627058026325      0.10721731007295722      0.10007575059338336      0.09145960329913289      0.07888947747965948      0.01872947367905442
2.577759700467249E-4      0.11458436835691639      0.10716981818804405      0.10003600436954113      0.09142301393287033      0.0788544995478146       0.01872339867582871
2.7277265063826804E-4     0.11445063347539906      0.10711925602599784      0.09999365183299291      0.0913840183534175       0.07881722296450579      0.018716923533618715
2.8805383461287775E-4     0.11431505061308067      0.1070655582404324       0.09994863106301144      0.0913425581669631       0.07877759219018095      0.0187100384487325
3.0362491930995233E-4     0.11417760462658764      0.10700866104449093      0.09990088075300432      0.09129857540277048      0.07873555211070365      0.018702733680469742
3.194914044623004E-4      0.11403828056234053      0.10694850238484349      0.09985034032796077      0.0912520126135778       0.07869104813352926      0.018694999567862587
3.3565889413866205E-4     0.1138970636672087       0.10688502211641168      0.09979695006442388      0.09120281297839783      0.07864402628608382      0.0186868265468671
3.521330987230691E-4      0.11375393939928101      0.10681816217693249      0.09974065121263645      0.09115092040745568      0.07859443331609972      0.018678205167967636
3.6891983693176727E-4     0.11360889343874064      0.10674786676042658      0.09968138612048137      0.09109627964897724      0.07854221679362394      0.018669126114149344
3.860250378683926E-4      0.11346191169883846      0.10667408248856602      0.09961909835880978      0.0910388363975144       0.07848732521440707      0.01865958021919367
4.034547431181436E-4      0.11331298033695346      0.10659675857891607      0.09955373284770189      0.090978537403484        0.07842970810435308      0.018649558486246748
4.212151088816756E-4      0.11316208576573521      0.10651584700895535      0.09948523598320214      0.09091533058355292      0.07836931612469009      0.018639052106604596
4.3931240814948575E-4     0.11300921466431149      0.106431302674757        0.09941355576401956      0.09084916513149219      0.0783061011774997       0.018628052478659445
4.577530329175384E-4      0.11285435398955904      0.10634308354320007      0.09933864191766778      0.0907799916291056       0.07824001651123236      0.018616551226944986
4.7654349644493264E-4     0.11269749098742243      0.10625115079654737      0.09926044602549117      0.09070776215680779      0.07817101682581201      0.01860454022121569
4.956904355543938E-4      0.11253861320427042      0.10615546896822664      0.09917892164600411      0.0906324304034149       0.07809905837691697      0.01859201159549369
5.152006129764119E-4      0.11237770849828016      0.10605600606866405      0.09909402443595272      0.0905539517746991       0.078024099079021        0.018578957767013033
5.350809197378479E-4      0.1122147650508378       0.10595273370003772      0.09900571226847887      0.09047228350023269      0.07794609860675306      0.018565371454986726
5.553383775958558E-4      0.11204977137794012      0.10584562715884         0.09891394534777845      0.09038738473804842      0.07786501849413605      0.0185512456991251
5.759801415179802E-4      0.11188271634159087      0.10573466552520033      0.09881868631961113      0.09029921667663249      0.07778082223125972      0.01853657387782684
5.970135022093011E-4      0.1117135891611745       0.10561983173796277      0.09871990037703174      0.0902077426337475       0.07769347535792456      0.01852134972596415
6.184458886875241E-4      0.11154237942479467      0.10550111265460371      0.09861755536070854      0.09011292815160066      0.0776029455538142       0.018505567352186225
6.402848709069204E-4      0.11136907710056873      0.10537849909514654      0.09851162185319623      0.09001474108785495      0.0775092027247386       0.01848922125565916
6.625381624320483E-4      0.11119367254785917      0.10525198586934435      0.0984020732665477       0.08991315170200145      0.07741221908450674      0.01847230634216379
6.852136231621974E-4      0.11101615652843164      0.10512157178650847      0.0982888859226535       0.08980813273659799      0.07731196923198821      0.018454817939473483
7.083192621075152E-4      0.11083652021752527      0.1049872596474967       0.09817203912573563      0.08969965949291751      0.07720843022294654      0.018436751811933216
7.318632402178076E-4      0.11065475521481968      0.10484905621850041      0.09805151522643368      0.08958770990053747      0.07710158163622735      0.018418104174163077
7.558538732649938E-4      0.11047085355528641      0.10470697218644037      0.09792729967695665      0.08947226458044233      0.07699140563392204      0.018398871703813637
7.802996347802566E-4      0.11028480771990706      0.10456102209591558      0.09779938107682085      0.08935330690121873      0.07687788701512477      0.01837905155329856
8.052091590469014E-4      0.1100966106462487       0.10441122426783572      0.0976677512087285       0.08923082302796073      0.07676101326296195      0.018358641360438147
8.30591244150007E-4       0.10990625573887566      0.10425760070002311      0.09753240506419095      0.08910480196352791      0.07664077458456384      0.018337639257946535
8.564548550839145E-4      0.10971373687958688      0.10410017695024981      0.09739334085856263      0.08897523558182907      0.07651716394370364      0.01831604388170106
8.82809126918689E-4       0.10951904843746224      0.10393898200235935      0.09725056003519736      0.0888421186528533       0.07639017708586336      0.018293854377737527
9.096633680266289E-4      0.10932218527870333      0.1037740481162728       0.0971040672585187       0.08870544885919834      0.07625981255550911      0.018271070407918127
9.370270633700102E-4      0.10912314277625292      0.10360541066286705      0.0969538703958526       0.08856522680389972      0.0761260717054138       0.01824769215422574
9.649098778511818E-4      0.10892191681917933      0.10343310794487208      0.09679998048794008      0.08842145600940723      0.07598895869789635      0.018223720321642795
9.933216597262328E-4      0.10871850382180892      0.10325718100507716      0.09664241170813584      0.08827414290759762      0.07584848049789981      0.018199156139579335
0.0010222724440834042     0.10851290073259337      0.10307767342328275      0.09648118131036218      0.08812329682078195      0.07570464685786163      0.018174001361822296
0.0010517724563875073     0.10830510504269715      0.10289463110356828      0.09631630956597179      0.08796892993369596      0.07555747029439684      0.01814825826498196
0.0010818321160915663     0.10809511479428711      0.10270810205354328      0.09614781968975386      0.08781105725653238      0.07540696605684044      0.018121929645422717
0.0011124620403169952     0.10788292858851567      0.10251813615734448      0.09597573775540003      0.08764969657912684      0.07525315208775787      0.018095018814667983
0.0011436730476035732     0.10766854559317651      0.1023247849442311       0.09580009260081865      0.08748486841645242      0.07509604897557423      0.01806752959327907
0.0011754761617305807     0.1074519655500247       0.10212810135465133      0.09562091572377351      0.08731659594565228      0.0749356798995206       0.018039466303215287
0.0012078826156104062     0.1072331887817416       0.10192813950570057      0.09543824116839397      0.0871449049348782       0.07477207056713998      0.0180108337586886
0.0012409038552560392     0.10701221619853876      0.1017249544578932       0.09525210540317836      0.08696982366426267      0.07460524914464603      0.01798163725553511
0.0012745515438238114     0.1067890493043798       0.10151860198514107      0.09506254719118337      0.08679138283940692      0.07443524618046737      0.01795188255913148
0.0013088375657328527     0.1065636902028102       0.10130913834979728      0.0948696074531523       0.08660961549781351      0.07426209452234797      0.01792157589089522
0.0013437740308626775     0.10633614160238708      0.10109662008454877      0.09467332912440043      0.08642455690873597      0.07408582922841953      0.01789072391341064
0.001379373278830424      0.10610640682168937      0.10088110378285117      0.09447375700632149      0.08623624446696697      0.07390648747269654      0.017859333714233414
0.0014156478833492168     0.10587448979390313      0.10066264589948681      0.0942709376134305       0.08604471758113223      0.0737241084454708       0.017827412788431283
0.0014526106566692355     0.10564039507096831      0.10044130256269843      0.09406491901689562      0.08585001755708083      0.07353873324912072      0.01779496901992651
0.0014902746541030096     0.10540412782727535      0.10021712939919149      0.09385575068553734      0.08565218747700047      0.0733504047898694       0.01776201066171204
0.001528653178636588      0.10516569386290633      0.09999018137313127      0.09364348332530015      0.08545127207491993      0.07315916766605013      0.017728546315018315
0.001567759785628165      0.10492509960640617      0.09976051264009447      0.09342816871820925      0.08524731760927973      0.07296506805345904      0.017694584907515565
0.0016076082875958668     0.10468235211707785      0.09952817641672199      0.09320985956182884      0.08504037173326297      0.07276815358837255      0.017660135670640217
0.001648212759096342      0.10443745908679525      0.09929322486663632      0.09298860931023092      0.08483048336359669      0.07256847324884175      0.017625208116138952
0.0016895875416959344     0.10419042884132168      0.09905570900298913      0.0927644720174725       0.0846177025485443       0.07236607723485508      0.017589812011930453
0.00173174724903613       0.10394127034113262      0.0988156786077806       0.0925375021845389       0.08440208033580188      0.07216101684797344      0.017553957357386588
0.0017747067719951367     0.10368999318173307      0.0985731821679108       0.09230775461068652      0.0841836686410048       0.0719533443710367       0.01751765435813756
0.0018184812839473516     0.1034366075934669       0.09832826682772071      0.09207528425007555      0.08396252011755781      0.07174311294852373      0.01748091340051374
0.0018630862461226372     0.1031811244408105       0.09808097835759658      0.09184014607450927      0.08373868802845587      0.07153037646814656      0.01744374502573086
0.001908537413067235      0.10292355522115244      0.09783136113802884      0.0916023949430655       0.08351222612077178      0.07131518944422835      0.01740615990393428
0.0019548508382083176     0.10266391206305109      0.09757945815837069      0.09136208547930036      0.08328318850343222      0.07109760690339872      0.017368168808215748
0.002002042879524067      0.10240220772397024      0.09732531102938083      0.09111927195665337      0.08305162952889188      0.07087768427312385      0.01732978258871483
0.0020501302053213557     0.1021384555874933       0.09706896000852475      0.09087400819259574      0.08281760367926919      0.07065547727353809      0.017291012146921778
0.002099129800123006      0.10187266966001111      0.09681044403689737      0.09062634745196085      0.082581165457458        0.07043104181302948      0.01725186841029165
0.0021490589706667624     0.10160486456689022      0.09654980078654551      0.0903763423598185       0.08234236928369609      0.07020443388799147      0.017212362307282538
0.0021999353520180506     0.10133505554811856      0.09628706671691017      0.09012404482415814      0.08210126939801762      0.06997570948710956      0.017172504742925594
0.0022517769137987234     0.10106325845342909      0.09602227713907159      0.08986950596854057      0.0818579197689587       0.06974492450051795      0.01713230657503245
0.002304601966533948      0.10078948973690945      0.09575546628645969      0.08961277607478423      0.08161237400883287      0.0695121346341153       0.01709177859114184
0.0023584291681195226     0.1005137664511005       0.09548666739069812      0.089353904535666        0.08136468529584118      0.06927739532928041      0.01705093148630235
0.0024132775304118725     0.10023610624058335      0.09521591276128258      0.08909293981750188      0.08111490630320801      0.06904076168820569      0.017009775841783627
0.0024691664259430686     0.09995652733506544      0.09494323386782243      0.08882992943239698      0.08086308913549271      0.06880228840498065      0.016968322104801804
0.002526115594763242      0.09967504854197332      0.09466866142365891      0.08856491991985961      0.08060928527214634      0.06856202970255271      0.01692658056933949
0.0025841451514127954     0.09939168923855238      0.09439222546972392      0.08829795683739773      0.08035354551834198      0.06832003927562362      0.016884561358133675
0.0026432755920268976     0.09910646936348844      0.09411395545761181      0.08802908475963211      0.0800959199630315       0.06807637023950294      0.01684227440589601
0.002703527801574751      0.09881940940805745      0.0938338803309253       0.08775834728540226      0.07983645794413206      0.06783107508488789      0.016799729443824355
0.002764923061236195      0.09853053040681121      0.09355202860406853      0.0874857870522757       0.07957520802069387      0.06758420563850946      0.01675693598545415
0.0028274830559182557     0.0982398539278122       0.09326842843775882      0.08721144575782158      0.07931221795183833      0.06733581302953096      0.016713903313891422
0.00289122988191429       0.097947402062426        0.09298310771066412      0.08693536418697029      0.07904753468220638      0.06708594766155468      0.01667064047045729
0.0029561860547084357     0.09765319741468587      0.09269609408666295      0.08665758224474812      0.07878120433362698      0.06683465919005042      0.016627156244768543
0.0030223745169281136     0.0973572630902389       0.09240741507734637      0.08637813899365229      0.07851327220265322      0.06658199650499158      0.016583459166266558
0.003089818646447403      0.09705962268488998      0.09211709809948992      0.08609707269493118      0.07824378276358354      0.06632800771844446      0.016539557497198834
0.003158542264644146      0.09676030027275251      0.09182517052731237      0.08581442085301876      0.07797277967656767      0.06607274015683914      0.01649545922704715
0.0032285696448136974     0.09645932039402638      0.0915316597394471       0.08553022026239296      0.07770030580034398      0.06581624035762904      0.01645117206838781
0.0032999255207422887     0.09615670804241283      0.09123659316061947      0.08524450705614334      0.07742640320915732      0.06555855407000213      0.016406703454160974
0.0033726350954430555     0.09585248865218532      0.0909399982981044       0.08495731675555523      0.07715111321337945      0.06529972625932139      0.016362060536315153
0.0034467240500577574     0.09554668808492771      0.09064190277311035      0.08466868432006025      0.07687447638334176      0.0650398011149392       0.016317250185786475
0.003522218552927433      0.09523933261596185      0.09034233434727511      0.08437864419693747      0.07659653257589884      0.06477882206102673      0.016272278993763812
0.003599145268835073      0.09493044892047764      0.09004132094451368      0.08408723037020492      0.07631732096322436      0.06451683177005396      0.01622715327418284
0.0036775313684236813     0.09462006405938349      0.08973889066848957      0.0837944764081839       0.07603688006336416      0.06425387217855721      0.016181879067384948
0.0037574045377929835     0.09430820546489393      0.08943507181600176      0.08350041550928619      0.07575524777207648      0.06398998450482918      0.01613646214487299
0.003838792988278208      0.09399490092587544      0.08912989288660078      0.08320508054562384      0.07547246139549871      0.06372520926817224      0.016090908015085385
0.003921725466414371      0.09368017857296257      0.08882338258875276      0.08290850410410798      0.07518855768321903      0.06345958630936835      0.01604522193011259
0.004006231264089606      0.09336406686347107      0.08851556984287089      0.08261071852475857      0.07490357286133673      0.06319315481203065      0.015999408893267134
0.004092340228891101      0.09304659456611772      0.08820648378152993      0.08231175593601174      0.07461754266513755      0.06292595332450995      0.015953473667424674
0.004180082774647326      0.0927277907455735       0.08789615374717091      0.08201164828687262      0.07433050237103682      0.06265801978205773      0.01590742078404248
0.004269489892170224      0.09240768474686106      0.08758460928758799      0.0817104273758005       0.07404248682747364      0.06238939152896495      0.015861254552766327
0.004360593160201255      0.09208630617962367      0.08727188014947418      0.08140812487628751      0.07375353048448122      0.0621201053404036       0.015814979071534938
0.004453424756565013      0.09176368490227828      0.08695799627027986      0.0811047723591255       0.0734636674216965       0.06185019744374297      0.01576859823708957
0.004548017469534537      0.09143985100607349      0.086642987768628        0.08080040131140717      0.07317293137459702      0.06157970353912191      0.01572211575579937
0.004644404709412129      0.09111483479907276      0.0863268849334943       0.08049504315233677      0.07288135575880944      0.061308658819094086     0.015675535154714627
0.004742620520329984      0.09078866679008082      0.08600971821235881      0.08018872924596618      0.07258897369234917      0.061037097987176846     0.015628859792762916
0.004842699592274587      0.09046137767253107      0.08569151819849491      0.07988149091100491      0.07229581801571003      0.06076505527517381      0.015582092872006622
0.004944677273339301      0.09013299830835199      0.0853723156175602       0.07957335942785806      0.07200192130973651      0.06049256445916199      0.015535237448883585
0.005048589582209357      0.08980355971183512      0.08505214131362017      0.07926436604308212      0.07170731591125876      0.06021965887405388      0.0154882964453591
0.005154473220883726      0.08947309303351786      0.08473102623473584      0.07895454197144955      0.07141203392648376      0.05994637142668047      0.015441272659921158
0.0052623655876383145     0.08914162954410046      0.08440900141821105      0.07864391839582438      0.07111610724218317      0.05967273460735587      0.015394168778356648
0.005372304790235109      0.08880920061841663      0.08408609797559866      0.07833252646505712      0.07081956753473384      0.05939878049991173      0.015346987384253087
0.005484329659381879      0.08847583771947334      0.08376234707754375      0.07802039729010135      0.07052244627707262      0.05912454079020745      0.015299730969175439
0.005598479762447276      0.08814157238257651      0.08343777993852891      0.07770756193855544      0.07022477474368047      0.05885004677314276      0.015252401942474523
0.005714795417436066      0.08780643619956122      0.08311242780158498      0.07739405142782478      0.06992658401369495      0.058575329358213156     0.015205002640690097
0.005833317707229548      0.08747046080313828      0.0827863219230189       0.077079896717098        0.06962790497227134      0.05830041907366873      0.015157535336516748
0.00595408849409604       0.08713367785137986      0.08245949355719429      0.07676512869830313      0.06932876831033324      0.058025346069346055     0.01511000224730908
0.006077150434476774      0.08679611901235157      0.08213197394141332      0.07644977818622095      0.06902920452284385      0.05775014011825312      0.015062405543105978
0.006202546994052162      0.08645781594891198      0.08180379428092664      0.07613387590790288      0.06872924390574169      0.05747483061700083      0.015014747354162299
0.006330322463093984      0.08611880030369094      0.08147498573409674      0.07581745249153507      0.06842891655168179      0.0571994465851751       0.01496702977797918
0.006460521972108746      0.08577910368426056      0.0811455793977457       0.07550053845488228      0.06812825234473156      0.05692401666375411      0.014919254885831412
0.00659319150777789       0.08543875764851455      0.08081560629270584      0.07518316419341582      0.06782728095415017      0.05664856911267456      0.01487142472879345
0.006728377929200352      0.0850977936902639       0.08048509734959225      0.07486535996823876      0.06752603182739411      0.056373131807653715     0.014823541343269495
0.006866128984443262      0.08475624322506643      0.08015408339481257      0.07454715589389424      0.06722453418247354      0.056097732236373855     0.014775606756039656
0.007006493327406631      0.08441413757629977      0.07982259513683321      0.07422858192613804      0.0669228169997857       0.05582239749413216      0.014727622988833088
0.007149520535008036      0.08407150796148494      0.07949066315271454      0.07390966784974477      0.06662090901353607      0.055547154279061525     0.014679592062445353
0.007295261124693224      0.08372838547887985      0.07915831787492165      0.07359044326640915      0.06631883870285381      0.05527202888701541      0.014631516000417686
0.007443766572278972      0.08338480109434282      0.07882558957843133      0.07327093758279088      0.06601663428270049      0.05499704720621354      0.014583396832297615
0.0075950893301344235     0.08304078562848138      0.07849250836813453      0.07295117999875081      0.06571432369466058      0.05472223471173365      0.014535236596503725
0.007749282845707362      0.08269636974409389      0.07815910416655655      0.07263119949581409      0.06541193459769044      0.054447616459932166     0.014487037342814108
0.007906401580401956      0.0823515839339112       0.07782540670188832      0.07231102482589533      0.06510949435890165      0.05417321708286725      0.014438801134503316
0.008066501028814552      0.08200645850864698      0.07749144549634773      0.07199068450030383      0.06480703004444148      0.053899060782793835     0.014390530050148998
0.008229637738334539      0.08166102358535995      0.0771572498548746       0.0716702067790595       0.06450456841051866      0.053625171326790705     0.01434222618513192
0.008395869329116918      0.08131530907614054      0.07682284885416066      0.0713496196605302       0.0642021358946344       0.053351572041574785     0.014293891652851373
0.008565254514433877      0.08096934467712243      0.07648827133202632      0.071028950871415        0.06389975860704773      0.05307828580854991      0.01424552858567531
0.008737853121412379      0.08062315985782659      0.07615354587714845      0.07070822785707001      0.06359746232251737      0.05280533505913239      0.014197139135649121
0.00891372611216523       0.08027678385083961      0.07581870081913306      0.07038747777220368      0.0632952724723502       0.05253274177038501      0.014148725474979536
0.009092935605322993      0.07993024564183253      0.07548376421895225      0.07006672747193365      0.06299321413677382      0.05226052746099308      0.014100289796314149
0.009275544897974377      0.07958357395992564      0.07514876385973641      0.06974600350321943      0.06269131203765571      0.05198871318760229      0.014051834312832006
0.009461618488022898      0.07923679726839525      0.07481372723792562      0.06942533209667513      0.06238959053159186      0.05171731954153798      0.014003361258162726
0.0096512220969676        0.0788899437557313       0.07447868155479072      0.06910473915875812      0.06208807360336166      0.05144636664591837      0.013954872886147607
0.009844422693116056      0.07854304132704307      0.07414365370830919      0.06878425026433993      0.061786784859770696     0.0511758741531723       0.013906371470456102
0.010041288515237641      0.07819611759581739      0.07380867028541         0.0684638906496641       0.06148574752388544      0.050905861242966186     0.013857859304071348
0.010241889096665605      0.07784919987602666      0.07347375755458223      0.06814368520568279      0.06118498442965574      0.05063634662054006      0.013809338698653494
0.010446295289856316      0.07750231517458875      0.07313894145884813      0.06782365847177246      0.060884518016936354     0.05036734851545453      0.013760811983791987
0.010654579291414537      0.07715549018417953      0.07280424760909526      0.06750383462983164      0.0605843703269042       0.05009888468074384      0.013712281506155962
0.01086681466759332       0.07680875127639346      0.07246970127777201      0.06718423749875754      0.060284562997868385     0.049830972392466824     0.01366374962854933
0.011083076380277765      0.07646212449525462      0.07213532739294126      0.06686489052929126      0.059985117261472695     0.04956362844965047      0.013615218728878976
0.011303440813461654      0.07611563555107383      0.07180115053269312      0.06654581679923556      0.059686053939289364     0.04929686917461462      0.013566691199040828
0.011527985800226445      0.07576930981465155      0.07146719491990433      0.06622703900904164      0.059387393439792865     0.049030710413669        0.013518169443731291
0.011756790650231993      0.07542317231182218      0.07113348441735484      0.06590857947775294      0.059089155755718575     0.04876516753816627      0.013469655879186727
0.011989936177728904      0.07507724771833799      0.07080004252318689      0.06559046013930847      0.0587913604617935       0.048500255445905374     0.013421152931856866
0.012227504730102211      0.07473156035508981      0.07046689236670625      0.06527270253919565      0.05849402671283814      0.04823598856286499      0.01337266303701633
0.012469580216956665      0.07438613418365757      0.07013405670452381      0.06495532783145033      0.05819717324222965      0.047972380845256755     0.013324188637316577