% Model:              RWGS_demo_CeO2_cycle2_CO2.mph
% Version:            COMSOL 5.6.0.341
% Date:               Jun 28 2022, 11:43
% Dimension:          1
% Nodes:              1386
% Expressions:        6
% Description:        
% X                       u2-delta_cCO2(c) (1) @ t=0 u2-delta_cCO2(c) (1) @ t=80 u2-delta_cCO2(c) (1) @ t=160 u2-delta_cCO2(c) (1) @ t=240 u2-delta_cCO2(c) (1) @ t=320 u2-delta_cCO2(c) (1) @ t=404.35
0                         7.07410237332784E-9      2.9223910685925725E-4    3.195920686167725E-4     4.1488909216519376E-4    6.926739001040377E-4     0.0036160510492049894
1.0106389363155493E-5     -2.431916057421546E-9    2.922286508762542E-4     3.195888313395692E-4     4.14887488929698E-4      6.926733065069982E-4     0.0036159878690590966
2.0404507952446597E-5     6.109132921761073E-10    2.921967845434803E-4     3.19578963875404E-4      4.148826017922533E-4     6.926714965494671E-4     0.0036157952758190583
3.0897993080352014E-5     -1.3540715770865575E-10  2.921426784879694E-4     3.1956220524965995E-4    4.1487430038287393E-4    6.926684203981959E-4     0.00361546812734867
4.159055106313618E-5      6.547296732550834E-11    2.9206550671764114E-4    3.1953829225924574E-4    4.148624523542879E-4     6.926640262864547E-4     0.0036150011998128014
5.248595852992239E-5      1.2542411553795318E-11   2.9196444960707946E-4    3.1950695995835304E-4    4.148469235111252E-4     6.926582604178319E-4     0.0036143891918661523
6.358806375660837E-5      2.6434084088311494E-11   2.918386971004841E-4     3.194679421817184E-4     4.148275779475852E-4     6.926510668642527E-4     0.0036136267292473084
7.490078802507985E-5      2.264653742312106E-11    2.91687452135439E-4      3.1942097211079545E-4    4.1480427820068944E-4    6.926423874660387E-4     0.0036127083697861887
8.642812700821763E-5      2.3528283488172264E-11   2.915099342767069E-4     3.193657828843288E-4     4.1477688541686347E-4    6.926321617239384E-4     0.0036116286088372675
9.817415218117173E-5      2.3174628882571824E-11   2.9130538356597624E-4    3.193021082480915E-4     4.147452595299403E-4     6.926203266872794E-4     0.003610381885144757
1.1014301225941769E-4     2.3146165539777996E-11   2.9107306457713117E-4    3.192296832514527E-4     4.14709259457087E-4      6.926068168489063E-4     0.0036089625871464585
1.2233893466408478E-4     2.3030341522733977E-11   2.9081227066921067E-4    3.1914824498496114E-4    4.1466874330861603E-4    6.925915640249442E-4     0.0036073650597224383
1.347662270150932E-4      2.293615297688234E-11    2.9052232842368547E-4    3.190575333612E-4        4.1462356860797606E-4    6.925744972442818E-4     0.0036055836113922882
1.4742927865260753E-4     2.2834949209293853E-11   2.9020260225545713E-4    3.1895729194265227E-4    4.145735925304983E-4     6.925555426313124E-4     0.0036036125219609094
1.6033256218736384E-4     2.2734099325294466E-11   2.8985249918014877E-4    3.188472688066338E-4     4.1451867215864385E-4    6.925346232887278E-4     0.0036014460506149336
1.734806350803981E-4      2.263177839578745E-11    2.8947147371034126E-4    3.1872721745566934E-4    4.144586647477008E-4     6.925116591816258E-4     0.003599078444465314
1.868781412527545E-4      2.252842357108875E-11    2.890590328678694E-4     3.185968977632847E-4     4.1439342800802387E-4    6.924865670231151E-4     0.003596503947533197
2.0052981272572078E-4     2.242410424013741E-11    2.886147412750756E-4     3.184560769626532E-4     4.143228204034552E-4     6.924592601566248E-4     0.0035937168101703443
2.1444047129218845E-4     2.23185983583285E-11     2.881382262988133E-4     3.18304530668459E-4      4.1424670146144454E-4    6.92429648448803E-4      0.0035907112989058635
2.286150302197191E-4      2.2212037764646198E-11   2.8762918320849457E-4    3.181420439299365E-4     4.1416493209925354E-4    6.923976381740596E-4     0.0035874817067059438
2.4305849598591723E-4     2.210440164240879E-11    2.870873803127172E-4     3.1796841231642586E-4    4.140773749611443E-4     6.923631319140505E-4     0.0035840223636319675
2.577759700467249E-4      2.199561366378333E-11    2.865126640290219E-4     3.1778344302849787E-4    4.139838947721519E-4     6.923260284565982E-4     0.0035803276478789843
2.7277265063826804E-4     2.1885784851072287E-11   2.859049638447575E-4     3.1758695602791126E-4    4.138843586995525E-4     6.922862226993176E-4     0.0035763919971743014
2.8805383461287775E-4     2.1774824998654907E-11   2.8526429711518003E-4    3.1737878518719315E-4    4.137786367264737E-4     6.922436055613879E-4     0.003572209920509665
3.0362491930995233E-4     2.166276880100071E-11    2.845907736475223E-4     3.171587794506339E-4     4.136666020384469E-4     6.921980639033737E-4     0.0035677760101838225
3.194914044623004E-4      2.1549810547139003E-11   2.838846000169856E-4     3.1692680399811324E-4    4.1354813141503827E-4    6.921494804553799E-4     0.0035630849541223707
3.3565889413866205E-4     2.1435693497995345E-11   2.83146083557749E-4      3.1668274141079256E-4    4.1342310563007717E-4    6.920977337523948E-4     0.003558131548442516
3.521330987230691E-4      2.132051479808439E-11    2.823756359659549E-4     3.16426492826892E-4      4.1329140985888607E-4    6.920426980845731E-4     0.003552910710227529
3.6891983693176727E-4     2.1204232814042712E-11   2.8157377645970233E-4    3.1615797908141063E-4    4.131529340893128E-4     6.919842434548185E-4     0.003547417490469572
3.860250378683926E-4      2.1086847545870313E-11   2.807411344239938E-4     3.158771418266468E-4     4.1300757353111145E-4    6.919222355505281E-4     0.0035416470871402206
4.034547431181436E-4      2.0968560221490407E-11   2.7987845149705926E-4    3.155839446126532E-4     4.128552290322274E-4     6.918565357289796E-4     0.0035355948583437897
4.212151088816756E-4      2.084916961297978E-11    2.789865830243182E-4     3.152783739320403E-4     4.1269580748939244E-4    6.91787001017373E-4      0.003529256335504072
4.3931240814948575E-4     2.0728849192686027E-11   2.78066498822338E-4      3.149604402125153E-4     4.125292222526486E-4     6.917134841253683E-4     0.0035226272365361418
4.577530329175384E-4      2.0607439366049363E-11   2.7711928320784535E-4    3.1463017874838045E-4    4.123553935271862E-4     6.916358334754097E-4     0.0035157034789499234
4.7654349644493264E-4     2.0485085849841767E-11   2.7614613423553036E-4    3.1428765056041447E-4    4.1217424876356656E-4    6.915538932502005E-4     0.003508481192830381
4.956904355543938E-4      2.0361656805079065E-11   2.751483620957243E-4     3.1393294317468706E-4    4.1198572303489944E-4    6.914675034534468E-4     0.0035009567336388974
5.152006129764119E-4      2.0237304887427143E-11   2.741273866375543E-4     3.135661713132426E-4     4.117897594023562E-4     6.913764999924368E-4     0.0034931266947780797
5.350809197378479E-4      2.0111905196795732E-11   2.7308473398800215E-4    3.1318747747551695E-4    4.115863092581662E-4     6.91280714774381E-4      0.003484987919858849
5.553383775958558E-4      1.998561732774462E-11    2.720220322353778E-4     3.1279703241451906E-4    4.113753326489486E-4     6.911799758204246E-4     0.003476537514613128
5.759801415179802E-4      1.9858351074653058E-11   2.7094100617190003E-4    3.1239503548550346E-4    4.1115679857834514E-4    6.910741074019483E-4     0.003467772858389697
5.970135022093011E-4      1.9730175826460083E-11   2.698434710835043E-4     3.1198171486254006E-4    4.1093068527633947E-4    6.909629301874512E-4     0.0034586916151718855
6.184458886875241E-4      1.96010985220596E-11     2.687313256030596E-4     3.11557327613822E-4      4.106969804421601E-4     6.908462614116789E-4     0.003449291744060036
6.402848709069204E-4      1.9471112222557707E-11   2.676065436393524E-4     3.111221596238667E-4     4.104556814498103E-4     6.907239150584915E-4     0.0034395715091565422
6.625381624320483E-4      1.934025162242392E-11    2.664711654180585E-4     3.1067652535848866E-4    4.1020679552142975E-4    6.9059570206121E-4       0.0034295294887962662
6.852136231621974E-4      1.9208447332719203E-11   2.653272876763507E-4     3.1022076745754884E-4    4.09950339853464E-4      6.904614305151754E-4     0.0034191645840663913
7.083192621075152E-4      1.9075824253533824E-11   2.6417705307404254E-4    3.097552561585129E-4     4.096863417067387E-4     6.903209059076557E-4     0.0034084760265604974
7.318632402178076E-4      1.894235462929217E-11    2.630226388829274E-4     3.092803885403686E-4     4.094148384451504E-4     6.901739313565011E-4     0.00339746338531448
7.558538732649938E-4      1.8808038459994236E-11   2.6186624505048633E-4    3.087965875800333E-4     4.091358775292833E-4     6.900203078648165E-4     0.0033861265728771343
7.802996347802566E-4      1.8672903501215643E-11   2.607100817212174E-4     3.0830430102615075E-4    4.088495164556033E-4     6.898598345758539E-4     0.0033744658504671204
8.052091590469014E-4      1.8536984447425908E-11   2.5955635633322094E-4    3.078040000849616E-4     4.085558226439509E-4     6.896923090463983E-4     0.003362481832177201
8.30591244150007E-4       1.8400281298625032E-11   2.584072604005644E-4     3.072961779171726E-4     4.0825487327084825E-4    6.895175275190984E-4     0.003350175488186216
8.564548550839145E-4      1.826284262707034E-11    2.5726495610812333E-4    3.0678134795313755E-4    4.0794675504230576E-4    6.893352851977327E-4     0.0033375481469459616
8.82809126918689E-4       1.8124668432761837E-11   2.561315628635541E-4     3.0626004202164575E-4    4.0763156391186023E-4    6.891453765281996E-4     0.003324601496315341
9.096633680266289E-4      1.798581422685075E-11    2.550091439326996E-4     3.0573280830784727E-4    4.073094047368428E-4     6.889475954743596E-4     0.003311337583617858
9.370270633700102E-4      1.7846127353671193E-11   2.538996933098489E-4     3.052002091435205E-4     4.0698039087653376E-4    6.887417357929401E-4     0.0032977588146055354
9.649098778511818E-4      1.7706017207963498E-11   2.5280512297229385E-4    3.04662818635594E-4      4.066446437320792E-4     6.885275913007805E-4     0.003283867951316676
9.933216597262328E-4      1.7565053578305623E-11   2.517272506593199E-4     3.0412122015276155E-4    4.0630229222245184E-4    6.883049561373367E-4     0.0032696681088211776
0.0010222724440834042     1.7423548714923243E-11   2.506677883189687E-4     3.035760036784879E-4     4.0595347220875877E-4    6.880736250108321E-4     0.0032551627508541573
0.0010517724563875073     1.72813985344078E-11     2.4962833136742135E-4    3.0302776304669266E-4    4.0559832585774364E-4    6.878333934374203E-4     0.0032403556843419775
0.0010818321160915663     1.7138693242380043E-11   2.4861034888593037E-4    3.0247709307797827E-4    4.0523700095153325E-4    6.87584057961238E-4      0.0032252510528349137
0.0011124620403169952     1.699540508326436E-11    2.4761517487242174E-4    3.0192458663876737E-4    4.0486965014893683E-4    6.873254163581657E-4     0.003209853328862802
0.0011436730476035732     1.6851603445999785E-11   2.4664400067242465E-4    3.013708316388225E-4     4.044964301931561E-4     6.870572678207634E-4     0.0031941673052382994
0.0011754761617305807     1.6707253636116803E-11   2.4569786866913274E-4    3.008164079934608E-4     4.0411750107908345E-4    6.867794131220142E-4     0.003178198085338712
0.0012078826156104062     1.6562425042554452E-11   2.447776673176749E-4     3.002618845727098E-4     4.0373302517886234E-4    6.864916547544148E-4     0.003161951072401496
0.0012409038552560392     1.6417138481994442E-11   2.4388412758836325E-4    2.997078161622105E-4     4.03343166330318E-4      6.861937970461252E-4     0.0031454319578757203
0.0012745515438238114     1.6271498037845333E-11   2.4301782085663776E-4    2.9915474046277035E-4    4.0294808889738964E-4    6.85885646252736E-4      0.003128646708875379
0.0013088375657328527     1.6125420443380278E-11   2.421791582680327E-4     2.9860317515241486E-4    4.0254795680707417E-4    6.85567010620558E-4      0.003111601554788946
0.0013437740308626775     1.597882243187243E-11    2.4136839157831713E-4    2.9805361503998373E-4    4.021429325661574E-4     6.852377004229471E-4     0.0030943029730999046
0.001379373278830424      1.5831981559077946E-11   2.405856154504768E-4     2.975065293337187E-4     4.017331762651011E-4     6.848975279721697E-4     0.0030767576744812845
0.0014156478833492168     1.568478680269436E-11    2.3983077116872947E-4    2.969623590523829E-4     4.0131884458290135E-4    6.84546307601272E-4      0.003058972587228906
0.0014526106566692355     1.5537272857191198E-11   2.3910365171558173E-4    2.9642151460548133E-4    4.009000897930576E-4     6.841838556213634E-4     0.0030409548411030832
0.0014902746541030096     1.5389495233719686E-11   2.384039081294309E-4     2.9588437356418973E-4    4.0047705877716E-4       6.838099902518532E-4     0.003022711750651304
0.001528653178636588      1.5241453932279825E-11   2.3773105704293085E-4    2.9535127864849936E-4    4.0004989205896097E-4    6.834245315260751E-4     0.003004250798086368
0.001567759785628165      1.5093197525128943E-11   2.370844893000157E-4     2.948225359502704E-4     3.996187228670067E-4     6.830273011772664E-4     0.002985579615798409
0.0016076082875958668     1.4944857851251214E-11   2.3646347951310903E-4    2.94298413411255E-4      3.9918367622951423E-4    6.826181224957664E-4     0.002966705968579666
0.001648212759096342      1.479620592714781E-11    2.358671964244885E-4     2.937791395725073E-4     3.9874486810864E-4       6.82196820174466E-4      0.0029476377356418976
0.0016895875416959344     1.464758175862002E-11    2.3529471393061302E-4    2.932649026145817E-4     3.983024045884215E-4     6.817632201343779E-4     0.0029283828925091987
0.00173174724903613       1.4498784117744634E-11   2.347450226008463E-4     2.9275584969171847E-4    3.9785638111862476E-4    6.813171493356904E-4     0.002908949492866894
0.0017747067719951367     1.434981300452165E-11    2.342170415379416E-4     2.9225208657196466E-4    3.9740688181835043E-4    6.808584355801686E-4     0.0028893456504460735
0.0018184812839473516     1.4200883524662089E-11   2.337096304168701E-4     2.917536775939242E-4     3.9695397885799316E-4    6.803869073024257E-4     0.0028695795210282333
0.0018630862461226372     1.4051967922590336E-11   2.332216015458674E-4     2.9126064592874257E-4    3.9649773190990334E-4    6.799023933608747E-4     0.002849659284644406
0.001908537413067235      1.3902962114897832E-11   2.3275173178733538E-4    2.9077297416206516E-4    3.960381876876376E-4     6.79404722825426E-4      0.002829593128049127
0.0019548508382083176     1.3754046512826079E-11   2.3229877420036932E-4    2.9029060517442307E-4    3.955753795667899E-4     6.78893724765546E-4      0.0028093892275436964
0.002002042879524067      1.3605276627526308E-11   2.318614692574869E-4     2.898134433184235E-4     3.951093272996642E-4     6.783692280513259E-4     0.002789055732219152
0.0020501302053213557     1.3456527558908249E-11   2.314385555161544E-4     2.893413558849589E-4     3.9464003682712634E-4    6.778310611594285E-4     0.002768600747690855
0.002099129800123006      1.3307882573698748E-11   2.3102877963315088E-4    2.8887417483224737E-4    3.9416750018306246E-4    6.772790519933292E-4     0.0027480323203871865
0.0021490589706667624     1.3159424938624653E-11   2.3063090562273209E-4    2.8841169876334116E-4    3.9369169549787614E-4    6.767130277228334E-4     0.002727358422455641
0.0021999353520180506     1.3011168531473771E-11   2.302437232807389E-4     2.87953695132577E-4      3.9321258710359186E-4    6.761328146428769E-4     0.002706586937342383
0.0022517769137987234     1.2863189680079046E-11   2.2986605571576058E-4    2.874999026515404E-4     3.927301257361446E-4     6.755382380569108E-4     0.0026857256460977915
0.002304601966533948      1.2715439812183149E-11   2.2949676594120894E-4    2.8705003386526873E-4    3.9224424883380765E-4    6.749291221875703E-4     0.0026647822144553832
0.0023584291681195226     1.2567870355528754E-11   2.2913476250326081E-4    2.866037778787231E-4     3.91754880933938E-4      6.743052901120455E-4     0.0026437641807261214
0.0024132775304118725     1.2420627026887843E-11   2.287790041424556E-4     2.861608031924437E-4     3.9126193415624233E-4    6.736665637404674E-4     0.0026226789445448154
0.0024691664259430686     1.2273793092987262E-11   2.2842850348904487E-4    2.85720760620084E-4      3.90765308778504E-4      6.730127638170311E-4     0.00260153375649929
0.002526115594763242      1.2127202020373318E-11   2.2808232982984844E-4    2.852832862538235E-4     3.902648938890821E-4     6.723437099618659E-4     0.0025803357086677716
0.0025841451514127954     1.1981124425908263E-11   2.277396109743729E-4     2.8484800444716907E-4    3.897605681195057E-4     6.716592207492988E-4     0.0025590917260842633
0.0026432755920268976     1.1835463165077442E-11   2.2739953427943632E-4    2.8441453077815426E-4    3.8925220044321723E-4    6.709591138260307E-4     0.002537808559144275
0.002703527801574751      1.1690218237880856E-11   2.270613468920088E-4     2.8398247496549955E-4    3.8873965103400354E-4    6.702432060631605E-4     0.0025164927769595422
0.002764923061236195      1.1545403522106312E-11   2.267243552856804E-4     2.8355144370566937E-4    3.882227721806464E-4     6.695113137498293E-4     0.0024951507616625766
0.0028274830559182557     1.1401171673419697E-11   2.2638792415784204E-4    2.831210434021125E-4     3.877014092446007E-4     6.687632528227724E-4     0.002473788703658131
0.00289122988191429       1.125741860841245E-11    2.2605147478380744E-4    2.826908827615257E-4     3.8717540164680264E-4    6.679988391339112E-4     0.002452412597809728
0.0029561860547084357     1.1114220654917517E-11   2.2571448290054086E-4    2.8226057523376286E-4    3.8664458388637524E-4    6.672178887520419E-4     0.002431028240548156
0.0030223745169281136     1.0971591690722704E-11   2.2537647620612944E-4    2.818297412712986E-4     3.8610878657183156E-4    6.664202183005105E-4     0.002409641227880198
0.003089818646447403      1.0829656615918282E-11   2.250370315618963E-4     2.813980103985869E-4     3.855678374532767E-4     6.656056453223994E-4     0.002388256954272536
0.003158542264644146      1.0688318285989595E-11   2.2469577196761875E-4    2.8096502306952653E-4    3.8502156245766306E-4    6.647739886746842E-4     0.0023668806123800026
0.0032285696448136974     1.0547611395406165E-11   2.2435236339426318E-4    2.805304323071148E-4     3.844697867035826E-4     6.639250689559478E-4     0.0023455171935836856
0.0032999255207422887     1.0407529005274085E-11   2.240065115346121E-4     2.800939051192594E-4     3.8391233549574244E-4    6.630587089469717E-4     0.0023241714893009677
0.0033726350954430555     1.0268196015683628E-11   2.2365795853344222E-4    2.796551236848299E-4     3.8334903528856185E-4    6.62174734075871E-4      0.0023028480930239563
0.0034467240500577574     1.0129702632255544E-11   2.2330647975755263E-4    2.7921378631381305E-4    3.82779714606471E-4      6.612729728984676E-4     0.002281551403041227
0.003522218552927433      9.991889260430042E-12    2.2295188064569427E-4    2.787696081829327E-4     3.8220420492217355E-4    6.603532575900628E-4     0.0022602856257949652
0.003599145268835073      9.854811411358355E-12    2.22593993679715E-4      2.783223218576908E-4     3.8162234147631757E-4    6.594154244447328E-4     0.002239054779822322
0.0036775313684236813     9.71857316844904E-12     2.2223267550837422E-4    2.778716776055401E-4     3.8103396404030876E-4    6.584593143802928E-4     0.002217862700228019
0.0037574045377929835     9.583174531702099E-12    2.2186780424549024E-4    2.7741744351838377E-4    3.8043891761711107E-4    6.574847734440517E-4     0.0021967130436361757
0.003838792988278208      9.448594684435818E-12    2.2149927695989946E-4    2.769594054553362E-4     3.798370530695011E-4     6.564916533133083E-4     0.00217560929356333
0.003921725466414371      9.31488913780143E-12     2.2112700736805213E-4    2.764973668248627E-4     3.792282276836312E-4     6.554798117893376E-4     0.0021545547661618435
0.004006231264089606      9.182092586268453E-12    2.2075092373306793E-4    2.760311482205083E-4     3.786123056573193E-4     6.544491132821489E-4     0.002133552616273862
0.004092340228891101      9.050156457579561E-12    2.2037096696867625E-4    2.755605869322886E-4     3.7798915851718073E-4    6.533994292779316E-4     0.002112605843746068
0.004180082774647326      8.919184835143312E-12    2.1998708894641061E-4    2.7508553635585686E-4    3.7735866546530217E-4    6.523306387904992E-4     0.0020917172999476707
0.004269489892170224      8.789101391126763E-12    2.195992509957459E-4     2.7460586530838466E-4    3.7672071365249526E-4    6.512426287971079E-4     0.0020708896944414256
0.004360593160201255      8.660017147832377E-12    2.192074225891294E-4     2.7412145727910564E-4    3.7607519838372266E-4    6.501352946451586E-4     0.00205012560175798
0.004453424756565013      8.531883533002826E-12    2.1881158019484287E-4    2.736322096291363E-4     3.754220232619135E-4     6.490085404370557E-4     0.0020294274682241906
0.004548017469534537      8.404867080091805E-12    2.1841170629122858E-4    2.7313803276075854E-4    3.7476110026522097E-4    6.478622793869883E-4     0.0020087976188001844
0.004644404709412129      8.278690233343156E-12    2.180077885188536E-4     2.726388492665377E-4     3.740923497722662E-4     6.466964341522684E-4     0.0019882382638825163
0.004742620520329984      8.153623609619132E-12    2.175998189668793E-4     2.721345930748603E-4     3.7341570052887296E-4    6.455109371311177E-4     0.001967751506033748
0.004842699592274587      8.029611697768502E-12    2.1718779356826035E-4    2.7162520861013367E-4    3.727310895726421E-4     6.443057307315148E-4     0.0019473393466019366
0.004944677273339301      7.90659204774613E-12     2.1677171159898562E-4    2.7111064996897943E-4    3.720384621133041E-4     6.430807676109929E-4     0.001927003692196335
0.005048589582209357      7.784758948581327E-12    2.163515752594547E-4     2.7059088012961613E-4    3.7133777138043805E-4    6.418360108819444E-4     0.0019067463609906184
0.005154473220883726      7.663938927926495E-12    2.1592738933649824E-4    2.700658701978234E-4     3.7062897843448406E-4    6.405714342878135E-4     0.0018865690888271612
0.0052623655876383145     7.544125046887729E-12    2.1549916092368504E-4    2.6953559869640625E-4    3.6991205195638366E-4    6.392870223471889E-4     0.0018664735350997046
0.005372304790235109      7.42549771670653E-12     2.150668991977439E-4     2.6900005090368245E-4    3.6918696802209355E-4    6.379827704681915E-4     0.001846461288396128
0.005484329659381879      7.308008365125573E-12    2.1463061524008842E-4    2.684592182414028E-4     3.684537098517654E-4     6.36658685033438E-4      0.0018265338718855282
0.005598479762447276      7.19160841988753E-12     2.141903218926891E-4     2.6791309771419247E-4    3.677122675585717E-4     6.353147834571374E-4     0.0018066927484377895
0.005714795417436066      7.0764297199765736E-12   2.1374603364487238E-4    2.673616913996951E-4     3.6696263789021827E-4    6.339510942132351E-4     0.001786939325467223
0.005833317707229548      6.962333487514627E-12    2.1329776654716026E-4    2.668050059947205E-4     3.66204823964808E-4      6.325676568390178E-4     0.0017672749594938794
0.00595408849409604       6.8494238059102486E-12   2.1284553813831486E-4    2.662430524037959E-4     3.6543883501350544E-4    6.311645219141404E-4     0.001747700960420896
0.006077150434476774      6.73759659175488E-12     2.1238936739291503E-4    2.656758453789751E-4     3.646646861264341E-4     6.29741751015378E-4      0.0017282185955264625
0.006202546994052162      6.627004500714406E-12    2.1192927467987566E-4    2.651034032018426E-4     3.6388239800613786E-4    6.282994166513338E-4     0.0017088290931739913
0.006330322463093984      6.5175642660619815E-12   2.1146528172694135E-4    2.64525747404272E-4      3.630919967284804E-4     6.268376021757241E-4     0.0016895336462437772
0.006460521972108746      6.4093383378427404E-12   2.109974115943325E-4     2.6394290253094893E-4    3.622935135195321E-4     6.253564016830762E-4     0.0016703334152935378
0.00659319150777789       6.302326716056683E-12    2.1052568865351923E-4    2.6335489592881067E-4    3.614869845395552E-4     6.23855919887055E-4      0.0016512295314553204
0.006728377929200352      6.196584911855041E-12    2.1005013856912474E-4    2.6276175756948655E-4    3.606724506820744E-4     6.223362719831212E-4     0.001632223099077225
0.006866128984443262      6.091890880632889E-12    2.09570788281363E-4      2.621635198966979E-4     3.5984995738420206E-4    6.207975834973956E-4     0.0016133151981225988
0.007006493327406631      5.98844585031344E-12     2.0908766599214007E-4    2.615602176964729E-4     3.590195544521113E-4     6.192399901211072E-4     0.0015945068863356922
0.007149520535008036      5.886152676382039E-12    2.0860080115352175E-4    2.60951887985722E-4      3.58181295898298E-4      6.176636375361706E-4     0.0015757992011870463
0.007295261124693224      5.785108503353342E-12    2.0811022445182958E-4    2.603385699189234E-4     3.573352397896884E-4     6.160686812276828E-4     0.0015571931616105948
0.007443766572278972      5.685375781272484E-12    2.07615967796837E-4      2.597203047053076E-4     3.56481448108327E-4      6.144552862887183E-4     0.0015386897695445307
0.0075950893301344235     5.586746343322346E-12    2.0711806430530333E-4    2.590971355391561E-4     3.5561998662270167E-4    6.128236272160102E-4     0.00152029001129024
0.007749282845707362      5.489407539638336E-12    2.0661654829102344E-4    2.5846910753832275E-4    3.5475092476670855E-4    6.111738876989105E-4     0.0015019948586990038
0.007906401580401956      5.3932414090240854E-12   2.061114552470572E-4     2.57836267693011E-4      3.5387433552854647E-4    6.095062604013629E-4     0.0014838052702011752
0.008066501028814552      5.298261829267403E-12    2.0560282183126888E-4    2.571986648153349E-4     3.5299029534879844E-4    6.078209467386061E-4     0.0014657221916878323
0.008229637738334539      5.2045312504134245E-12   2.0509068585180396E-4    2.565563494967907E-4     3.5209888401992184E-4    6.061181566490506E-4     0.0014477465572575532
0.008395869329116918      5.1120080390987255E-12   2.0457508624827092E-4    2.5590937406511083E-4    3.512001845970558E-4     6.043981083617318E-4     0.0014298792898389794
0.008565254514433877      5.020692195323306E-12    2.0405606307463686E-4    2.5525779254989556E-4    3.5029428330826673E-4    6.026610281604332E-4     0.0014121213016972329
0.008737853121412379      4.930590657981071E-12    2.0353365748366353E-4    2.5460166064100037E-4    3.493812694699214E-4     6.009071501457477E-4     0.0013944734948371767
0.00891372611216523       4.8417658771171546E-12   2.030079117027045E-4     2.5394103565633264E-4    3.4846123540769464E-4    5.991367159927374E-4     0.0013769367613093572
0.009092935605322993      4.754058258171767E-12    2.024788690169685E-4     2.532759765036807E-4     3.47534276375544E-4      5.973499747091125E-4     0.0013595119834289814
0.009275544897974377      4.667599640129083E-12    2.0194657374811298E-4    2.5260654364506197E-4    3.466004904752809E-4     5.955471823911561E-4     0.0013422000339138119
0.009461618488022898      4.58227900068664E-12     2.014110712304576E-4     2.519327990628817E-4     3.456599785833965E-4     5.937286019789025E-4     0.0013250017759494914
0.0096512220969676        4.498186545465188E-12    2.008724077932761E-4     2.5125480622164437E-4    3.44712844269502E-4      5.918945030104587E-4     0.0013079180631874656
0.009844422693116056      4.41530839667692E-12     2.0033063073374852E-4    2.50572630029533E-4      3.437591937190364E-4     5.900451613769717E-4     0.0012909497396813244
0.010041288515237641      4.333561287594989E-12    1.997857882939033E-4     2.498863368036522E-4     3.4279913565705977E-4    5.881808590781253E-4     0.001274097639768222
0.010241889096665605      4.253028484946242E-12    1.9923792963670584E-4    2.491959942310801E-4     3.418327812656184E-4     5.863018839766081E-4     0.001257362587898059
0.010446295289856316      4.173647538685543E-12    1.9868710482208451E-4    2.485016713274432E-4     3.4086024410315274E-4    5.84408529554388E-4      0.001240745398415905
0.010654579291414537      4.095480898858028E-12    1.9813336477975813E-4    2.47803438397691E-4      3.3988164002239987E-4    5.825010946708883E-4     0.0012242468753019195
0.01086681466759332       4.018410604267331E-12    1.975767612832635E-4     2.4710136699757773E-4    3.388970870846497E-4     5.805798833200156E-4     0.0012078678118710153
0.011083076380277765      3.942512982746393E-12    1.9701734692329637E-4    2.463955298898507E-4     3.379067054721449E-4     5.786452043897543E-4     0.0011916089904368586
0.011303440813461654      3.8677810954013125E-12   1.9645517508304344E-4    2.45686001001888E-4      3.369106174007236E-4     5.766973714219775E-4     0.0011754711819416909
0.011527985800226445      3.794159431080857E-12    1.9589029990659673E-4    2.449728553853975E-4     3.359089470249474E-4     5.747367023748312E-4     0.0011594551455566615
0.011756790650231993      3.721717378724065E-12    1.9532277627390404E-4    2.4425616917128634E-4    3.3490182034531454E-4    5.727635193828323E-4     0.0011435616282527445
0.011989936177728904      3.650385549391899E-12    1.9475265977163952E-4    2.4353601952668835E-4    3.3388936510978656E-4    5.707781485220602E-4     0.0011277913643462124
0.012227504730102211      3.5801084319331267E-12   1.9418000666349133E-4    2.428124846101179E-4     3.328717107138786E-4     5.6878091957277E-4       0.0011121450750209098