% Model:              RWGS_demo_CeO2_cycle2_H2.mph
% Version:            COMSOL 5.6.0.341
% Date:               Jun 28 2022, 11:32
% Dimension:          1
% Nodes:              1386
% Expressions:        7
% Description:        
% X                       delta_cH2O(c)-u2 (1) @ t=0 delta_cH2O(c)-u2 (1) @ t=80 delta_cH2O(c)-u2 (1) @ t=160 delta_cH2O(c)-u2 (1) @ t=240 delta_cH2O(c)-u2 (1) @ t=320 delta_cH2O(c)-u2 (1) @ t=400 delta_cH2O(c)-u2 (1) @ t=446.73
0                         1.0254351100885684E-8    8.793727728079875E-4     5.002721220076223E-4     3.569496610530548E-4     2.800637702719405E-4     2.3160901489246988E-4    2.1068960043478524E-4
1.0106389363155493E-5     -2.8713068173091827E-9   8.787637710928678E-4     4.99975412514439E-4      3.5676207199771687E-4    2.799310783665951E-4     2.3150905188099036E-4    2.1060320196243654E-4
2.0404507952446597E-5     7.021661811018598E-10    8.781451999969464E-4     4.996738617809304E-4     3.5657134107298233E-4    2.797961157862128E-4     2.3140734542503177E-4    2.105152808770383E-4
3.0897993080352014E-5     -2.600360309024108E-10   8.775169283632006E-4     4.993673891248301E-4     3.563774072241413E-4     2.7965883207203834E-4    2.3130385175285095E-4    2.1042579629437785E-4
4.159055106313618E-5      -1.3746708632522697E-11  8.768788388811705E-4     4.990559287343932E-4     3.561802247662657E-4     2.7951919240476464E-4    2.311985428834762E-4     2.1033472317492918E-4
5.248595852992239E-5      -8.011901385385212E-11   8.762308140022532E-4     4.987394144339019E-4     3.5597974766504725E-4    2.7937716164453535E-4    2.3109139054187933E-4    2.1024203620007703E-4
6.358806375660837E-5      -6.031801447203833E-11   8.755727359820165E-4     4.98417779702498E-4      3.5577592954635917E-4    2.792327043342757E-4     2.3098236616109213E-4    2.1014770977169361E-4
7.490078802507985E-5      -6.377502519139266E-11   8.749044869273553E-4     4.980909576910927E-4     3.5556872370449966E-4    2.790857847066869E-4     2.3087144088556472E-4    2.1005171801512235E-4
8.642812700821763E-5      -6.092628138110179E-11   8.742259488434684E-4     4.977588812420941E-4     3.5535808311609046E-4    2.789363666903036E-4     2.307585855758354E-4     2.0995403478415303E-4
9.817415218117173E-5      -5.975475322883561E-11   8.735370036825202E-4     4.974214829103762E-4     3.5514396044700886E-4    2.787844139155726E-4     2.3064377081111198E-4    2.0985463366100798E-4
1.1014301225941769E-4     -5.8114242584839104E-11  8.728375333948435E-4     4.970786949835063E-4     3.5492630806609887E-4    2.7862988972202074E-4    2.305269668938792E-4     2.0975348796116455E-4
1.2233893466408478E-4     -5.658354340631888E-11   8.721274199797041E-4     4.967304495051006E-4     3.547050780567246E-4     2.7847275716408326E-4    2.304081438553457E-4     2.0965057073640825E-4
1.347662270150932E-4      -5.5009382465831536E-11  8.71406545539688E-4      4.963766782958706E-4     3.544802222290311E-4     2.783129790222133E-4     2.3028727145954497E-4    2.095458547784132E-4
1.4742927865260753E-4     -5.343481560005081E-11   8.706747923347968E-4     4.960173129786652E-4     3.5425169213391255E-4    2.781505178079749E-4     2.301643192103367E-4     2.0943931262505655E-4
1.6033256218736384E-4     -5.185029662568841E-11   8.699320428404919E-4     4.956522850012024E-4     3.5401943907772265E-4    2.7798533577418766E-4    2.3003925635382838E-4    2.0933091656159114E-4
1.734806350803981E-4      -5.026040347799743E-11   8.691781798037951E-4     4.952815256644705E-4     3.5378341413448006E-4    2.7781739492346164E-4    2.2991205188754166E-4    2.0922063862728602E-4
1.868781412527545E-4      -4.866600698816281E-11   8.684130863049824E-4     4.949049661470625E-4     3.5354356816283405E-4    2.7764665701928565E-4    2.297826745664075E-4     2.0910845062199063E-4
2.0052981272572078E-4     -4.706896157558038E-11   8.676366458174115E-4     4.945225375328349E-4     3.5329985182165624E-4    2.774730835952491E-4     2.2965109290878222E-4    2.08994324109181E-4
2.1444047129218845E-4     -4.5470939513680975E-11  8.668487422712201E-4     4.941341708397107E-4     3.5305221558599303E-4    2.7729663596497145E-4    2.2951727520467008E-4    2.0887823042357867E-4
2.286150302197191E-4      -4.3873668587046666E-11  8.660492601169772E-4     4.937397970485036E-4     3.528006097649958E-4     2.7711727523550833E-4    2.2938118952293973E-4    2.08760140677465E-4
2.4305849598591723E-4     -4.227894423447509E-11   8.652380843914981E-4     4.933393471329706E-4     3.5254498451940675E-4    2.7693496231641357E-4    2.2924280371981048E-4    2.0864002576639895E-4
2.577759700467249E-4      -4.0688549751699554E-11  8.644151007850057E-4     4.92932752091349E-4      3.5228528987977376E-4    2.7674965793441503E-4    2.2910208544733857E-4    2.085178563777379E-4
2.7277265063826804E-4     -3.9104258026112504E-11  8.635801957102979E-4     4.92519942977658E-4      3.5202147576664233E-4    2.7656132264575195E-4    2.2895900216255566E-4    2.0839360299737542E-4
2.8805383461287775E-4     -3.7527881843746336E-11  8.627332563719767E-4     4.921008509353661E-4     3.5175349200915196E-4    2.7636991684892864E-4    2.2881352113782866E-4    2.0826723591695073E-4
3.0362491930995233E-4     -3.59612443989743E-11    8.61874170838127E-4      4.916754072301216E-4     3.5148128836717807E-4    2.761754007984188E-4     2.286656094692141E-4     2.0813872524452076E-4
3.194914044623004E-4      -3.440610817084799E-11   8.61002828114979E-4      4.912435432860643E-4     3.5120481455150343E-4    2.7597773462077063E-4    2.2851523408902452E-4    2.0800804091160308E-4
3.3565889413866205E-4     -3.2864235638419004E-11  8.601191182193296E-4     4.908051907201796E-4     3.509240202462169E-4     2.757768783279643E-4     2.2836236177500163E-4    2.0787515268258505E-4
3.521330987230691E-4      -3.133736152516331E-11   8.592229322539197E-4     4.90360281379866E-4      3.506388551315909E-4     2.755727918343845E-4     2.2820695916228595E-4    2.0774003016477138E-4
3.6891983693176727E-4     -2.982722402400384E-11   8.583141624850035E-4     4.899087473798913E-4     3.5034926890725043E-4    2.753654349725923E-4     2.28048992756677E-4      2.0760264281861202E-4
3.860250378683926E-4      -2.8335478061136676E-11  8.573927024206271E-4     4.894505211407302E-4     3.5005521131673684E-4    2.751547675098054E-4     2.2788842894470168E-4    2.074629599681313E-4
4.034547431181436E-4      -2.6863733459947525E-11  8.564584468899877E-4     4.889855354287889E-4     3.4975663217166886E-4    2.7494074916607075E-4    2.2772523400840794E-4    2.0732095081275187E-4
4.212151088816756E-4      -2.5413570553523002E-11  8.555112921224892E-4     4.885137233951314E-4     3.49453481378062E-4      2.747233396317439E-4     2.2755937413812544E-4    2.0717658443644704E-4
4.3931240814948575E-4     -2.3986455183200306E-11  8.545511358304114E-4     4.8803501861812565E-4    3.491457089625574E-4     2.7450249858602255E-4    2.273908154466972E-4     2.0702982982288842E-4
4.577530329175384E-4      -2.258384451669926E-11   8.535778772915323E-4     4.875493551439111E-4     3.488332650985748E-4     2.742781857169446E-4     2.272195239836905E-4     2.0688065586594445E-4
4.7654349644493264E-4     -2.1207098577225025E-11  8.525914174316446E-4     4.870566675297741E-4     3.4851610013407475E-4    2.7405036073988726E-4    2.2704546575030848E-4    2.067290313828435E-4
4.956904355543938E-4      -1.9857476774021166E-11  8.515916589096201E-4     4.865568908878626E-4     3.481941646208131E-4     2.7381898341857086E-4    2.2686860671421172E-4    2.065749251280724E-4
5.152006129764119E-4      -1.8536165657945247E-11  8.505785062024873E-4     4.860499609292482E-4     3.4786740934302646E-4    2.735840135863199E-4     2.266889128280658E-4     2.064183058071989E-4
5.350809197378479E-4      -1.72442823909158E-11    8.495518656911338E-4     4.855358140085017E-4     3.475357853452085E-4     2.733454111670877E-4     2.2650635004230896E-4    2.0625914209008306E-4
5.553383775958558E-4      -1.59828539292306E-11    8.485116457478126E-4     4.8501438717032247E-4    3.471992439649657E-4     2.731031361979594E-4     2.263208843243797E-4     2.0609740262778065E-4
5.759801415179802E-4      -1.4752754573521543E-11  8.474577568223229E-4     4.844856181951962E-4     3.468577368626463E-4     2.7285714885020435E-4    2.2613248167649425E-4    2.0593305606600443E-4
5.970135022093011E-4      -1.355482739939795E-11   8.463901115298225E-4     4.8394944564635056E-4    3.4651121605284996E-4    2.726074094548739E-4     2.259411081527926E-4     2.0576607106134043E-4
6.184458886875241E-4      -1.2389859971317918E-11  8.453086247406788E-4     4.8340580891938906E-4    3.461596339366796E-4     2.723538785251167E-4     2.2574672987745598E-4    2.0559641629860903E-4
6.402848709069204E-4      -1.1258423013305041E-11  8.442132136672054E-4     4.8285464828791425E-4    3.458029433338894E-4     2.720965167798614E-4     2.255493130640246E-4     2.0542406050610973E-4
6.625381624320483E-4      -1.0161056024360349E-11  8.431037979543601E-4     4.8229590495438984E-4    3.4544109751712126E-4    2.7183528517035066E-4    2.2534882403572182E-4    2.0524897247328755E-4
6.852136231621974E-4      -9.098227379822355E-12   8.419802997665857E-4     4.8172952109817174E-4    3.450740502448299E-4     2.715701449032826E-4     2.251452292440434E-4     2.050711210687256E-4
7.083192621075152E-4      -8.07027708549235E-12    8.408426438801103E-4     4.8115543992716114E-4    3.4470175579624784E-4    2.713010574683858E-4     2.2493849529019866E-4    2.0489047525756865E-4
7.318632402178076E-4      -7.0774792276795395E-12  8.396907577692819E-4     4.805736057268903E-4     3.443241690050669E-4     2.710279846638783E-4     2.247285889452194E-4     2.047070041205773E-4
7.558538732649938E-4      -6.120003809284569E-12   8.385245716964473E-4     4.7998396391129433E-4    3.4394124529549264E-4    2.707508886232446E-4     2.2451547717156767E-4    2.0452067687244668E-4
7.802996347802566E-4      -5.197925423416905E-12   8.373440188026507E-4     4.793864610732196E-4     3.4355294071813924E-4    2.704697318421101E-4     2.2429912714490297E-4    2.04331462882415E-4
8.052091590469014E-4      -4.3112527436939274E-12  8.361490351938214E-4     4.7878104503803337E-4    3.431592119860216E-4     2.701844772063089E-4     2.2407950627565537E-4    2.041393316926099E-4
8.30591244150007E-4       -3.4599111770061697E-12  8.349395600292867E-4     4.7816766491230733E-4    3.427600165093539E-4     2.6989508801935486E-4    2.2385658223274957E-4    2.0394425303889296E-4
8.564548550839145E-4      -2.6437584760286015E-12  8.337155356112347E-4     4.77546271137351E-4      3.423553124344489E-4     2.6960152803168214E-4    2.2363032296542074E-4    2.037461968712323E-4
8.82809126918689E-4       -1.862556983645014E-12   8.324769074689736E-4     4.769168155414269E-4     3.4194505868001546E-4    2.693037614682134E-4     2.2340069672669577E-4    2.0354513337478286E-4
9.096633680266289E-4      -1.1160447566105347E-12  8.31223624447E-4         4.762792513900438E-4     3.415292149740734E-4     2.6900175305834967E-4    2.2316767209786675E-4    2.033410329910293E-4
9.370270633700102E-4      -4.038418904839247E-13   8.299556387895216E-4     4.7563353343897663E-4    3.411077418921729E-4     2.686954680645795E-4     2.229312180115975E-4     2.0313386643957404E-4
9.649098778511818E-4      2.74426315005627E-13     8.286729062248685E-4     4.7497961798630833E-4    3.406806008945107E-4     2.6838487231308633E-4    2.2269130377639001E-4    2.0292360474022386E-4
9.933216597262328E-4      9.192455824313939E-13    8.27375386048039E-4      4.74317462923618E-4      3.402477543648502E-4     2.680699322228225E-4     2.2244789910180057E-4    2.027102192346461E-4
0.0010222724440834042     1.5311224510483612E-12   8.260630412032094E-4     4.736470277886262E-4     3.398091656475824E-4     2.6775061483582524E-4    2.2220097412201795E-4    2.0249368161014136E-4
0.0010517724563875073     2.1106033587514617E-12   8.247358383639616E-4     4.729682738149957E-4     3.39364799085376E-4      2.6742688784699153E-4    2.2195049942336925E-4    2.0227396392070995E-4
0.0010818321160915663     2.6582694379051475E-12   8.233937480119705E-4     4.7228116398454617E-4    3.389146200591109E-4     2.67098719636448E-4      2.2169644606643418E-4    2.0205103861192092E-4
0.0011124620403169952     3.174769475089434E-12    8.220367445152046E-4     4.715856630777629E-4     3.3845859502438375E-4    2.667660792980975E-4     2.2143878561406427E-4    2.0182487854247116E-4
0.0011436730476035732     3.660780012459952E-12    8.206648062021038E-4     4.7088173772383973E-4    3.379966915498106E-4     2.6642893667051804E-4    2.211774901570221E-4     2.0159545700906834E-4
0.0011754761617305807     4.116960244937573E-12    8.19277915436338E-4      4.7016935645061847E-4    3.375288783557251E-4     2.6608726236895114E-4    2.2091253233785801E-4    2.0136274776895446E-4
0.0012078826156104062     4.544061307787395E-12    8.178760586878761E-4     4.6944848973264064E-4    3.3705512535044807E-4    2.6574102781525E-4       2.2064388537893637E-4    2.0112672506571866E-4
0.0012409038552560392     4.9428152543162795E-12   8.164592266028253E-4     4.687191100411353E-4     3.3657540366910377E-4    2.6539020526851476E-4    2.2037152310804692E-4    2.00887363650544E-4
0.0012745515438238114     5.313969750342373E-12    8.150274140706001E-4     4.679811918905097E-4     3.360896857106249E-4     2.6503476785582486E-4    2.2009541998333632E-4    2.0064463880758304E-4
0.0013088375657328527     5.658288074195106E-12    8.135806202893697E-4     4.6723471188626214E-4    3.355979451735505E-4     2.6467468960238855E-4    2.1981555112083467E-4    2.003985263788824E-4
0.0013437740308626775     5.976604627866422E-12    8.121188488274325E-4     4.6647964876959935E-4    3.351001570934195E-4     2.6430994546387115E-4    2.195318923204695E-4     2.0014900278666342E-4
0.001379373278830424      6.269667077174468E-12    8.106421076840703E-4     4.6571598346389215E-4    3.3459629787949835E-4    2.639405113532209E-4     2.19244420091122E-4      1.998960450591003E-4
0.0014156478833492168     6.538302885217284E-12    8.09150409345892E-4      4.6494369911793954E-4    3.3408634534871917E-4    2.635663641746139E-4     2.1895311167692555E-4    1.996396308534959E-4
0.0014526106566692355     6.783301351176441E-12    8.076437708417691E-4     4.641627811479629E-4     3.3357027876211587E-4    2.6318748184940566E-4    2.1865794508400122E-4    1.9937973848001972E-4
0.0014902746541030096     7.005500346490834E-12    8.061222137929966E-4     4.633732172818483E-4     3.330480788589357E-4     2.6280384334879947E-4    2.183588991052851E-4     1.9911634692727775E-4
0.001528653178636588      7.205718660641125E-12    8.045857644629062E-4     4.625749975965196E-4     3.325197278899322E-4     2.624154287205263E-4     2.1805595334700723E-4    1.9884943588426712E-4
0.001567759785628165      7.384742123361931E-12    8.030344538006995E-4     4.6176811455975186E-4    3.3198520965095624E-4    2.620222191193622E-4     2.177490882526098E-4     1.985789857650716E-4
0.0016076082875958668     7.54339993247477E-12     8.014683174843509E-4     4.6095256306613597E-4    3.314445095154578E-4     2.616241968340441E-4     2.174382851285045E-4     1.9830497773273142E-4
0.001648212759096342      7.682502203842922E-12    7.998873959586122E-4     4.601283404735701E-4     3.308976144649964E-4     2.61221345314637E-4      2.1712352616915648E-4    1.980273937210314E-4
0.0016895875416959344     7.802853849159241E-12    7.982917344694154E-4     4.592954466390714E-4     3.30344513121493E-4      2.60813649201469E-4      2.168047944811069E-4     1.977462164592797E-4
0.00173174724903613       7.905230289817489E-12    7.966813830960276E-4     4.584538839503688E-4     3.2978519577579746E-4    2.6040109435061104E-4    2.1648207410691206E-4    1.9746142949363804E-4
0.0017747067719951367     7.99043123334009E-12     7.950563967785845E-4     4.5760365735866837E-4    3.292196544165127E-4     2.599836678595299E-4     2.161553500487634E-4     1.9717301721040165E-4
0.0018184812839473516     8.05922169277995E-12     7.934168353424115E-4     4.567447744078801E-4     3.286478827580347E-4     2.595613580936851E-4     2.1582460829217692E-4    1.9688096485721146E-4
0.0018630862461226372     8.112406579829923E-12    7.917627635178059E-4     4.55877245262179E-4      3.2806987626733675E-4    2.5913415470983636E-4    2.1548983582769105E-4    1.9658525856605658E-4
0.001908537413067235      8.150712743626443E-12    7.900942509570658E-4     4.550010827328657E-4     3.274856321895808E-4     2.5870204868042035E-4    2.1515102067413278E-4    1.962858853729807E-4
0.0019548508382083176     8.174901727775463E-12    7.88411372246299E-4      4.5411630230132727E-4    3.2689514957164045E-4    2.5826503231672626E-4    2.148081518988723E-4     1.9598283323924576E-4
0.002002042879524067      8.185684768902135E-12    7.867142069154578E-4     4.5322292214333704E-4    3.262984292857346E-4     2.5782309929119063E-4    2.1446121964010384E-4    1.9567609107217637E-4
0.0020501302053213557     8.183814736995032E-12    7.850028394417868E-4     4.523209631470751E-4     3.2569547405242316E-4    2.5737624465835274E-4    2.1411021512656586E-4    1.9536564874356177E-4
0.002099129800123006      8.169968174209785E-12    7.832773592492473E-4     4.5141044893209914E-4    3.250862884590783E-4     2.569244648754909E-4     2.1375513069706725E-4    1.950514971106876E-4
0.0021490589706667624     8.144852847724593E-12    7.815378607076498E-4     4.5049140586558845E-4    3.244708789801737E-4     2.564677578217253E-4     2.1339595981906267E-4    1.94733628033468E-4
0.0021999353520180506     8.109145299695086E-12    7.797844431230161E-4     4.495638630767629E-4     3.238492539954438E-4     2.5600612281808516E-4    2.1303269710791495E-4    1.944120343914807E-4
0.0022517769137987234     8.063490847254329E-12    7.780172107255748E-4     4.4862785246655573E-4    3.232214238049688E-4     2.555395606423094E-4     2.1266533834413126E-4    1.9408671010312517E-4
0.002304601966533948      8.008548685323191E-12    7.762362726544472E-4     4.4768340871997186E-4    3.225874006456478E-4     2.5506807354731126E-4    2.122938804885524E-4     1.9375765014179036E-4
0.0023584291681195226     7.944951987970406E-12    7.744417429378821E-4     4.46730569309807E-4      3.219471987035774E-4     2.5459166527527083E-4    2.1191832169976943E-4    1.9342485054964914E-4
0.0024132775304118725     7.873262805602188E-12    7.726337404671685E-4     4.4576937450516163E-4    3.2130083412573035E-4    2.54110341072554E-4      2.1153866134765442E-4    1.9308830845475577E-4
0.0024691664259430686     7.794133394245506E-12    7.708123889695606E-4     4.4479986737162164E-4    3.2064832503008595E-4    2.536241077027365E-4     2.1115490002918819E-4    1.9274802208514574E-4
0.002526115594763242      7.708099783454436E-12    7.689778169747141E-4     4.43822093772174E-4      3.199896915156361E-4     2.531329734570542E-4     2.1076703957933346E-4    1.9240399078024328E-4
0.0025841451514127954     7.615741370869955E-12    7.671301577778927E-4     4.428361023653543E-4     3.193249556678948E-4     2.526369481659074E-4     2.1037508308413555E-4    1.920562150055996E-4
0.0026432755920268976     7.517571634640952E-12    7.652695493993444E-4     4.418419445998828E-4     3.186541415650182E-4     2.521360432086034E-4     2.099790348922964E-4     1.9170469636369675E-4
0.002703527801574751      7.414112726533695E-12    7.633961345386089E-4     4.4083967470919666E-4    3.179772752804899E-4     2.5163027152065587E-4    2.0957890062406337E-4    1.913494376039604E-4
0.002764923061236195      7.30587118580317E-12     7.615100605256088E-4     4.3982934970177717E-4    3.1729438488687506E-4    2.511196476008906E-4     2.0917468718136684E-4    1.909904426338066E-4
0.0028274830559182557     7.1933362044696025E-12   7.59611479267279E-4      4.3881102934840294E-4    3.166055004552304E-4     2.506041875160944E-4     2.0876640275549474E-4    1.9062771652664234E-4
0.00289122988191429       7.076946667572415E-12    7.577005471905915E-4     4.377847761693268E-4     3.159106540524745E-4     2.500839089062193E-4     2.0835405683351793E-4    1.9026126553062933E-4
0.0029561860547084357     6.95716227683274E-12     7.557774251817397E-4     4.3675065541767116E-4    3.1520987973952114E-4    2.495588309860894E-4     2.0793766020409804E-4    1.8989109707498453E-4
0.0030223745169281136     6.8343924269909095E-12   7.538422785210094E-4     4.3570873506075525E-4    3.145032135676226E-4     2.490289745482044E-4     2.0751722496303165E-4    1.8951721977630148E-4
0.003089818646447403      6.709046512787253E-12    7.518952768142996E-4     4.346590857583141E-4     3.1379069356875233E-4    2.484943619608798E-4     2.07092764516921E-4      1.891396434425957E-4
0.003158542264644146      6.5815079081099626E-12   7.499365939208462E-4     4.336017808404882E-4     3.1307235975049086E-4    2.4795501716831647E-4    2.066642935842633E-4     1.8875837907859905E-4
0.0032285696448136974     6.452151313229848E-12    7.479664078776996E-4     4.3253689628042213E-4    3.1234825408305716E-4    2.474109656879428E-4     2.062318281973799E-4     1.8837343888782748E-4
0.0032999255207422887     6.3212941825430136E-12   7.459849008204199E-4     4.3146451066727876E-4    3.116184204892472E-4     2.4686223460512746E-4    2.0579538570372063E-4    1.8798483627460033E-4
0.0033726350954430555     6.189297338532462E-12    7.439922589001571E-4     4.3038470517579863E-4    3.108829048312431E-4     2.46308852567885E-4      2.0535498476329656E-4    1.8759258584408883E-4
0.0034467240500577574     6.056462623083014E-12    7.419886721982613E-4     4.292975635337773E-4     3.10141754894154E-4      2.45750849782303E-4      2.0491064534709086E-4    1.871967034037733E-4
0.003522218552927433      5.923071061397778E-12    7.399743346371279E-4     4.2820317198714875E-4    3.093950203702997E-4     2.451882580009057E-4     2.0446238873408212E-4    1.867972059606468E-4
0.003599145268835073      5.789403678679861E-12    7.379494438882056E-4     4.2710161926472895E-4    3.0864275283978143E-4    2.4462111051518076E-4    2.040102375069075E-4     1.8639411171921666E-4
0.0036775313684236813     5.655715479280232E-12    7.359142012765864E-4     4.259929965365547E-4     3.0788500575106015E-4    2.4404944214448387E-4    2.035542155455622E-4     1.85987440077931E-4
0.0037574045377929835     5.5222632022733364E-12   7.338688116843052E-4     4.2487739737504665E-4    3.0712183439876584E-4    2.434732892231256E-4     2.030943480209324E-4     1.855772116251056E-4
0.003838792988278208      5.389244606135435E-12    7.318134834492472E-4     4.237549177124947E-4     3.063532959007298E-4     2.4289268958641724E-4    2.0263066138685726E-4    1.851634481321654E-4
0.003921725466414371      5.2568921438123084E-12   7.297484282625007E-4     4.22625655794949E-4      3.055794491724634E-4     2.423076825574036E-4     2.0216318337100414E-4    1.847461725490926E-4
0.004006231264089606      5.1253914307158865E-12   7.276738610631078E-4     4.21489712136347E-4      3.048003549011996E-4     2.417183089289121E-4     2.0169194296540405E-4    1.843254089945942E-4
0.004092340228891101      4.994907265576387E-12    7.255899999314905E-4     4.2034718946950406E-4    3.0401607551813065E-4    2.411246109465942E-4     2.012169704141975E-4     1.8390118274871914E-4
0.004180082774647326      4.865604447124028E-12    7.234970659787537E-4     4.191981926965904E-4     3.0322667516809176E-4    2.405266322902111E-4     2.0073829720087394E-4    1.8347352024182528E-4
0.004269489892170224      4.7376529782594545E-12   7.213952832362189E-4     4.1804282883751986E-4    3.0243221968042494E-4    2.3992441805370524E-4    2.0025595603655189E-4    1.8304244904565614E-4
0.004360593160201255      4.611186432690317E-12    7.192848785422534E-4     4.1688120697507686E-4    3.016327765346452E-4     2.3931801472378694E-4    1.9976998084384606E-4    1.8260799785990017E-4
0.004453424756565013      4.486314097995603E-12    7.171660814268843E-4     4.157134382023822E-4     3.0082841482818867E-4    2.3870747015859728E-4    1.9928040674107445E-4    1.8217019649985344E-4
0.004548017469534537      4.3631522006482015E-12   7.150391239970043E-4     4.1453963556363493E-4    3.000192052432238E-4     2.3809283356229782E-4    1.9878727002871355E-4    1.8172907588347859E-4
0.004644404709412129      4.241799619886244E-12    7.129042408175676E-4     4.1335991399911454E-4    2.992052200074258E-4     2.3747415546158251E-4    1.9829060816638905E-4    1.812846680158825E-4
0.004742620520329984      4.122358704394813E-12    7.107616687939931E-4     4.1217439028454206E-4    2.983865328592822E-4     2.3685148768034375E-4    1.9779045975948373E-4    1.808370059739675E-4
0.004842699592274587      4.004874556984284E-12    7.086116470525483E-4     4.1098318297106556E-4    2.975632190075489E-4     2.362248833125899E-4     1.9728686453696076E-4    1.8038612388944497E-4
0.004944677273339301      3.889456465233643E-12    7.064544168201396E-4     4.0978641232528035E-4    2.967353550956467E-4     2.3559439669478682E-4    1.9677986333085234E-4    1.7993205693275782E-4
0.005048589582209357      3.77613478680372E-12     7.042902213034684E-4     4.085842002648568E-4     2.959030191567527E-4     2.34960083376215E-4      1.9626949805563731E-4    1.7947484129376967E-4
0.005154473220883726      3.664974573824864E-12    7.021193055674196E-4     4.0737667029691615E-4    2.9506629057556716E-4    2.34322000091651E-4      1.9575581168633505E-4    1.7901451416233588E-4
0.0052623655876383145     3.556011388128333E-12    6.999419164140062E-4     4.061639474528117E-4     2.9422525004572236E-4    2.3368020472919887E-4    1.952388482342124E-4     1.785511137097351E-4
0.005372304790235109      3.4492825262688598E-12   6.977583022604802E-4     4.049461582240066E-4     2.933799795254641E-4     2.3303475629949527E-4    1.9471865272451677E-4    1.7808467906755415E-4
0.005484329659381879      3.3448166111837985E-12   6.955687130175067E-4     4.0372343049616816E-4    2.9253056219451234E-4    2.3238571490327709E-4    1.9419527117078145E-4    1.7761525030583758E-4
0.005598479762447276      3.2426231838522668E-12   6.93373399968205E-4      4.024958934832623E-4     2.9167708241012447E-4    2.3173314169887965E-4    1.9366875054982469E-4    1.771428684114451E-4
0.005714795417436066      3.1427221935942384E-12   6.911726156466902E-4     4.012636776603573E-4     2.908196256610207E-4     2.3107709886981131E-4    1.9313913877600647E-4    1.7666757526474397E-4
0.005833317707229548      3.0451145077714514E-12   6.889666137177668E-4     4.000269146962124E-4     2.899582785211921E-4     2.304176495887475E-4     1.926064846741668E-4     1.7618941361742524E-4
0.00595408849409604       2.9498244125125694E-12   6.867556488567503E-4     3.987857373874554E-4     2.890931286050405E-4     2.2975485798452933E-4    1.9207083795284158E-4    1.757084270670728E-4
0.006077150434476774      2.8568319584976187E-12   6.845399766309858E-4     3.975402795901514E-4     2.882242645186883E-4     2.2908878910568586E-4    1.91532249175827E-4      1.752246600337029E-4
0.006202546994052162      2.7661380130883373E-12   6.823198533810852E-4     3.962906761504903E-4     2.8735177581456356E-4    2.284195088853927E-4     1.9099076973530527E-4    1.7473815773419443E-4
0.006330322463093984      2.6777243616882274E-12   6.800955361048501E-4     3.950370628397898E-4     2.864757529438336E-4     2.277470841056256E-4     1.9044645182109132E-4    1.7424896615669816E-4
0.006460521972108746      2.591579728594695E-12    6.778672823410936E-4     3.9377957628370513E-4    2.855962872059664E-4     2.2707158235872604E-4    1.8989934839216266E-4    1.7375713203488657E-4
0.00659319150777789       2.507667684614745E-12    6.756353500557456E-4     3.9251835389635115E-4    2.8471347070371106E-4    2.2639307201337971E-4    1.8934951314743265E-4    1.7326270282038564E-4
0.006728377929200352      2.4260099137918267E-12   6.733999975291304E-4     3.91253533812308E-4      2.8382739629275594E-4    2.2571162217450286E-4    1.8879700049522635E-4    1.727657266575311E-4
0.006866128984443262      2.346554374421661E-12    6.711614832452077E-4     3.89985254819078E-4      2.82938157535044E-4      2.2502730264777754E-4    1.8824186552350575E-4    1.7226625235505083E-4
0.007006493327406631      2.2692603005025624E-12   6.689200657823448E-4     3.8871365629045834E-4    2.8204584864856275E-4    2.243401839013004E-4     1.8768416396779813E-4    1.7176432935820524E-4
0.007149520535008036      2.194135498290173E-12    6.666760037061757E-4     3.874388781197058E-4     2.811505644613188E-4     2.2365033702721054E-4    1.8712395218199035E-4    1.7126000772274552E-4
0.007295261124693224      2.121121854548047E-12    6.644295554645331E-4     3.8616106065365863E-4    2.802524003613083E-4     2.2295783370415018E-4    1.8656128710594494E-4    1.707533380843132E-4
0.007443766572278972      2.0501985525944733E-12   6.62180979285297E-4      3.8488034462733425E-4    2.793514522480764E-4     2.2226274615928798E-4    1.859962262352674E-4     1.7024437163189882E-4
0.0075950893301344235     1.981317887533862E-12    6.599305330753542E-4     3.8359687109825596E-4    2.784478164870527E-4     2.2156514713128628E-4    1.8542882758825624E-4    1.6973316007895534E-4
0.007749282845707362      1.914470318387096E-12    6.57678474322132E-4      3.823107813840827E-4     2.775415898594938E-4     2.2086510983055502E-4    1.8485914967623224E-4    1.692197556351846E-4
0.007906401580401956      1.8495890583003494E-12   6.55425059998941E-4      3.8102221699833766E-4    2.7663286951580546E-4    2.201627079019483E-4     1.8428725147195263E-4    1.6870421097708865E-4