% Model:              RWGS_demo_CeO2_cycle1_CO2.mph
% Version:            COMSOL 5.6.0.341
% Date:               Jun 29 2022, 10:20
% Dimension:          1
% Nodes:              1386
% Expressions:        7
% Description:        Dependent variable u2
% X                       u2 (1) @ t=0             u2 (1) @ t=80            u2 (1) @ t=160           u2 (1) @ t=240           u2 (1) @ t=320           u2 (1) @ t=400           u2 (1) @ t=436.56
0                         0.12103878206063085      0.1124173067231735       0.10612359457259833      0.09904784419734072      0.0900117570230933       0.07584551310392929      0.024770983425072463
1.0106389363155493E-5     0.12093852506492203      0.1124164414289098       0.10612288123553085      0.09904719137718643      0.0900111370734081       0.07584490644948544      0.024770530087543922
2.0404507952446597E-5     0.12083673584171889      0.11241380379724515      0.10612070673878544      0.0990452013422855       0.09000924723771764      0.07584305715116925      0.024769148265795324
3.0897993080352014E-5     0.12073339700423838      0.11240932359735945      0.10611701296878633      0.09904182086323302      0.09000603696034822      0.07583991576443083      0.024766801363843023
4.159055106313618E-5      0.12062849114631652      0.11240292963174073      0.10611174084608542      0.09903699579072778      0.09000145480686492      0.07583543200538775      0.024763452428586526
5.248595852992239E-5      0.12052200086569573      0.11239454981468132      0.10610483036716663      0.09903067108889588      0.08999544849486192      0.0758295547833081       0.024759064205168976
6.358806375660837E-5      0.12041390877134844      0.11238411125776576      0.10609622065046842      0.09902279087210711      0.08998796492799743      0.07582223223639305      0.024753599196020014
7.490078802507985E-5      0.12030419749100507      0.112371540362494        0.10608584998673996      0.09901329844538945      0.08997895023335678      0.07581341177092918      0.024747019723524492
8.642812700821763E-5      0.12019284967887951      0.11235676292014334      0.10607365589383554      0.09900213634852696      0.08996834980222697      0.07580304010389338      0.024739287996231263
9.817415218117173E-5      0.12007984802359081      0.11233970421894368      0.10605957517603803      0.09898924640391835      0.0899561083343503       0.0757910633090712       0.024730366178490046
1.1014301225941769E-4     0.11996517525628347      0.1123202891586052       0.10604354398798366      0.09897456976826688      0.0899421698857241       0.07577742686674824      0.024720216463378464
1.2233893466408478E-4     0.11984881415894416      0.11229844237218616      0.10602549790325515      0.09895804698815747      0.08992647791999323      0.0757620757170131       0.024708801148747118
1.347662270150932E-4      0.11973074757290691      0.11227408835524814      0.10600537198768267      0.09893961805956278      0.08990897536347556      0.07574495431670067      0.024696082716185522
1.4742927865260753E-4     0.11961095840755623      0.11224715160219226      0.10598310087737833      0.09891922249130912      0.08988960466384771      0.07572600670000382      0.02468202391268247
1.6033256218736384E-4     0.11948942964921301      0.11221755674961831      0.1059586188615074       0.09889679937252108      0.08986830785250338      0.07570517654274045      0.024666587834722146
1.734806350803981E-4      0.1193661443702083       0.11218522872648223      0.10593185996977644      0.09887228744403286      0.08984502661058015      0.07568240723027114      0.02464973801453472
1.868781412527545E-4      0.11924108573814204      0.11215009291076936      0.105902758064596        0.09884562517375402      0.08981970233863812      0.07565764192903468      0.024631438508188087
2.0052981272572078E-4     0.11911423702531741      0.1121120752923348       0.10587124693784575      0.09881675083594586      0.08979227622995073      0.07563082366164975      0.02461165398518772
2.1444047129218845E-4     0.11898558161835243      0.11207110264148523      0.10583726041214458      0.0987856025943496       0.08976268934735829      0.0756018953855131       0.02459034981922325
2.286150302197191E-4      0.11885510302796141      0.11202710268281348      0.10580073244650086      0.09875211858908459      0.08973088270360574      0.0755708000748121       0.024567492179682744
2.4305849598591723E-4     0.11872278489890312      0.11198000427371374      0.1057615972461812       0.09871623702721356      0.08969679734507172      0.07553748080583413      0.024543048123538785
2.577759700467249E-4      0.11858861102008986      0.11192973758692928      0.10571978937661028      0.09867789627684703      0.08966037443877775      0.07550188084544746      0.024516985687189602
2.7277265063826804E-4     0.11845256533485218      0.11187623429641635      0.10567524388107422      0.09863703496463241      0.0896215553625353       0.0754639437425954       0.024489273977834066
2.8805383461287775E-4     0.11831463195135367      0.11181942776571197      0.10562789640196998      0.09859359207645338      0.08958028179807692      0.07542361342263496      0.02445988326394468
3.0362491930995233E-4     0.11817479515314833      0.11175925323793992      0.10557768330531032      0.0985475070611371       0.08953649582698629      0.07538083428431255      0.024428785064403435
3.194914044623004E-4      0.11803303940987686      0.11169564802649065      0.1055245418081477       0.09849871993693579      0.08949014002922251      0.0753355512991602       0.02439595223585935
3.3565889413866205E-4     0.11788934938808965      0.11162855170535775      0.10546841010855235      0.09844717140052947      0.08944115758400978      0.07528771011306346      0.02436135905787459
3.521330987230691E-4      0.11774370996219372      0.11155790629803661      0.10540922751774351      0.09839280293826722      0.08938949237284484      0.07523725714973405      0.024324981315431173
3.6891983693176727E-4     0.11759610622551592      0.1114836564638259       0.10534693459393427      0.09833555693933282      0.08933508908433589      0.07518413971579022      0.02428679637838055
3.860250378683926E-4      0.11744652350146745      0.11140574968033204      0.10528147327740647      0.09827537681050647      0.08927789332058716      0.07512830610714101      0.02424678327743613
4.034547431181436E-4      0.11729494735481022      0.11132413642091182      0.1052127870263149       0.09821220709214973      0.08921785170479885      0.0750697057163226       0.02420492277632552
4.212151088816756E-4      0.11714136360300825      0.11123877032575796      0.10514082095267446      0.09814599357503426      0.08915491198973906      0.07500828914044683      0.02416119743973954
4.3931240814948575E-4     0.11698575832765924      0.11114960836531246      0.10506552195794819      0.09807668341760033      0.08908902316672998      0.0749440082893715       0.02411559169674788
4.577530329175384E-4      0.11682811788599523      0.11105661099466914      0.10498683886763804      0.09800422526320508      0.08902013557475717      0.07487681649370873      0.024068091899368947
4.7654349644493264E-4     0.1166684289224394       0.11095974229761937      0.10490472256424457      0.09792856935691358      0.08894820100930162      0.07480666861225063      0.024018686376019324
4.956904355543938E-4      0.11650667838021203      0.11085897011902868      0.10481912611793533      0.09784966766134807      0.08887317283047605      0.0747335211383935       0.023967365479599618
5.152006129764119E-4      0.11634285351297177      0.11075426618423832      0.10473000491424908      0.0977674739711073       0.08879500607003066      0.07465733230512164      0.023914121630004413
5.350809197378479E-4      0.11617694189648414      0.11064560620423959      0.10463731677814157      0.09768194402524416      0.08871365753677796      0.0745780621881013       0.023858949350883302
5.553383775958558E-4      0.11600893144029951      0.11053296996543394      0.10454102209366432      0.09759303561728419      0.08862908591998514      0.07449567280642669      0.023801845300512093
5.759801415179802E-4      0.11583881039943478      0.11041634140285551      0.10444108391856696      0.09750070870224806      0.08854125189025966      0.07441012822056109      0.02374280829667226
5.970135022093011E-4      0.11566656738604111      0.11029570865584834      0.10433746809310951      0.09740492550015373      0.08845011819746557      0.07432139462700883      0.023681839335468538
6.184458886875241E-4      0.11549219138104845      0.1101710641052808       0.10423014334236484      0.09730565059544474      0.08835564976518953      0.0742294404492549       0.023618941604056823
6.402848709069204E-4      0.1153156717457723       0.11004240439152613      0.10411908137131962      0.09720285103181388      0.08825781378128934      0.07413423642451747      0.023554120487278188
6.625381624320483E-4      0.11513699823346683      0.1099097304125736       0.10400425695207888      0.09709649640188864      0.08815657978405252      0.0740357556858584       0.02348738356823702
6.852136231621974E-4      0.11495616100081493      0.10977304730179427      0.10388564800251046      0.09698655893125142      0.08805191974350673      0.07393397383922025      0.023418740622887183
7.083192621075152E-4      0.11477315061933914      0.10963236438506088      0.10376323565569932      0.09687301355627959      0.08794380813742866      0.07382886903495542      0.02334820360871835
7.318632402178076E-4      0.1145879580867168       0.10948769511710461      0.10363700431960121      0.0967558379953177       0.08783222202161672      0.07372042203344886      0.023275786647665817
7.558538732649938E-4      0.1144005748379898       0.10933905699718177      0.10350694172634185      0.09663501281269862      0.08771714109401132      0.07360861626444262      0.0232015060033869
7.802996347802566E-4      0.11421099275664935      0.1091864714643305       0.10337303897065203      0.0965105214751747       0.08759854775225953      0.07349343787970616      0.023125380053072388
8.052091590469014E-4      0.11401920418558367      0.10902996377269372      0.10323529053697716      0.09638235040033488      0.08747642714436205      0.07337487579871424      0.023047429253980685
8.30591244150007E-4       0.11382520193787429      0.10886956284760088      0.10309369431487433      0.09625048899662587      0.08735076721205393      0.07325292174703057      0.022967676104896098
8.564548550839145E-4      0.11362897930742187      0.10870530112330012      0.10294825160236704      0.09611492969463356      0.08722155872660578      0.07312757028713532      0.022886145102734713
8.82809126918689E-4       0.11343053007939277      0.10853721436343372      0.10279896709700273      0.09597566796932325      0.08708879531677405      0.07299881884145404      0.022802862694526548
9.096633680266289E-4      0.11322984854046161      0.1083653414655524       0.10264584887444297      0.09583270235297514      0.08695247348866166      0.07286666770740861      0.02271785722501842
9.370270633700102E-4      0.1130269294888464       0.10818972425113382      0.10248890835449073      0.0956860344386185       0.08681259263729231      0.07273112006432456      0.02263115888014715
9.649098778511818E-4      0.11282176824410935      0.10801040724274788      0.10232816025454947      0.09553566887380147      0.0866691550497374       0.07259218197210236      0.02254279962664114
9.933216597262328E-4      0.1126143606567149       0.10782743743016783      0.10216362253060476      0.09538161334460316      0.08652216589969944      0.07244986236158169      0.022452813148013555
0.0010222724440834042     0.11240470311732975      0.10764086402734525      0.1019953163058985       0.09522387854984549      0.08637163323348301      0.07230417301658493      0.022361234777209894
0.0010517724563875073     0.1121927925658447       0.10745073822229644      0.1018232657875708       0.09506247816552352      0.08621756794734255      0.07215512854767198      0.022268101426180166
0.0010818321160915663     0.11197862650010851      0.10725711292201717      0.10164749817163757      0.09489742879953511      0.08605998375624692      0.07200274635768822      0.022173451512643494
0.0011124620403169952     0.11176220298435706      0.10706004249461155      0.10146804353675891      0.09472874993685446      0.08589889715415092      0.071847046599231        0.02207732488431257
0.0011436730476035732     0.11154352065732004      0.10685958251085675      0.10128493472735328      0.09455646387535137      0.08573432736590834      0.07168805212420712      0.021979762740843907
0.0011754761617305807     0.11132257873999667      0.10665578948741401      0.10109820722669824      0.09438059565252829      0.08556629629102713      0.07152578842570856      0.021880807553782133
0.0012078826156104062     0.1110993770430793       0.10644872063388933      0.10090789902074698      0.09420117296350114      0.08539482843949806      0.0713602835724707       0.021780502984758553
0.0012409038552560392     0.11087391597401829      0.1062384336058808       0.1007140504534697       0.09401822607061536      0.08521995085999653      0.07119156813622363      0.021678893802204866
0.0012745515438238114     0.11064619654370922      0.10602498626606621      0.10051670407460048      0.09383178770514848      0.08504169306079083      0.07101967511229645      0.0215760257968382
0.0013088375657328527     0.11041622037278673      0.10580843645527395      0.1003159044807537       0.09364189296159796      0.08486008692374199      0.07084463983385703      0.021471945696171557
0.0013437740308626775     0.11018398969752186      0.10558884177535183      0.10011169815091295      0.09344857918511619      0.08467516661182944      0.07066649988022536      0.02136670107829751
0.001379373278830424      0.10994950737530118      0.10536625938546865      0.09990413327736875      0.0932518858526999       0.08448696847066525      0.07048529497973072      0.021260340285191994
0.0014156478833492168     0.1097127768896776       0.1051407458133163       0.09969325959321135      0.09305185444878045      0.08429553092450529      0.07030106690758525      0.021152912335776902
0.0014526106566692355     0.10947380235498708      0.10491235678247265      0.09947912819752017      0.09284852833591081      0.08410089436729887      0.07011385937932549      0.0210444668389793
0.0014902746541030096     0.1092325885205116       0.1046811470569606       0.09926179137941968      0.0926419526212803       0.08390310104935145      0.06992371794034144      0.020935053907017866
0.001528653178636588      0.10898914077418327      0.10444717030382884      0.09904130244217074      0.09243217401980137      0.0837021949601919       0.0697306898520694       0.020824724069143447
0.001567759785628165      0.1087434651458188       0.10421047897432278      0.09881771552847762      0.09221924071456243      0.08349822170826678      0.06953482397542762      0.02071352818605303
0.0016076082875958668     0.10849556830987478      0.10397112420398359      0.09859108544816524      0.09200320221543815      0.08329122839809877      0.06933617065207692      0.020601517365194923
0.001648212759096342      0.10824545758771456      0.10372915573177942      0.09836146750936908      0.09178410921666286      0.08308126350555231      0.06913478158410627      0.02048874287717263
0.0016895875416959344     0.10799314094938078      0.10348462183812362      0.09812891735433266      0.09156201345418757      0.08286837675186848      0.06893070971273671      0.020375256073451146
0.00173174724903613       0.10773862701486175      0.10323756930141671      0.0978934908008639       0.09133696756362228      0.08265261897712711      0.06872400909664014      0.020261108305560722
0.0017747067719951367     0.10748192505484999      0.10298804337253471      0.09765524369044148      0.09110902493957203      0.08243404201377987      0.06851473479045703      0.02014635084598919
0.0018184812839473516     0.10722304499098764      0.102736087766477        0.09741423174389233      0.09087823959714264      0.0822126985609162       0.06830294272408619      0.020031034810941366
0.0018630862461226372     0.10696199739558632      0.10248174467022234      0.09717051042547764      0.09064466603638507      0.08198864205988862      0.06808868958330448      0.019915211085141094
0.001908537413067235      0.10669879349082531      0.10222505476566293      0.09692413481614187      0.09040835911040221      0.08176192657191296      0.06787203269226272      0.019798930248839365
0.0019548508382083176     0.10643344514742158      0.10196605726636923      0.09667515949657776      0.09016937389781868      0.08153260665823979      0.06765302989836247      0.019682242507182823
0.002002042879524067      0.1061659648827672       0.10170478996681173      0.09642363844065177      0.08992776558025986      0.08130073726346329      0.06743173946000793      0.019565197622091007
0.0020501302053213557     0.1058963658585341       0.10144128930259443      0.09616962491963789      0.08968358932545539      0.08106637360250557      0.0672082199376895       0.019447844846774504
0.002099129800123006      0.10562466187774672      0.101175590420192        0.0959131714175838       0.08943690017650083      0.08082957105177054      0.06698253008882606      0.019330232863022677
0.0021490589706667624     0.10535086738131863      0.10090772725464865      0.09565432955801567      0.08918775294779352      0.0805903850449338       0.06675472876674773      0.019212409721372017
0.0021999353520180506     0.10507499744405564      0.10063773261370292      0.09539315004208421      0.08893620212805588      0.08034887097378834      0.06652487482417663      0.01909442278425933
0.0022517769137987234     0.10479706777013052      0.10036563826681033      0.09512968259812118      0.08868230179082104      0.08010508409451449      0.06629302702151227      0.018976318672250064
0.002304601966533948      0.10451709468802214      0.10009147503759677      0.0948639759424717       0.08842610551267743      0.07985907943970788      0.06605924394019261      0.01885814321341945
0.0023584291681195226     0.10423509514493436      0.09981527289832427      0.09459607775135592      0.08816766629949854      0.0796109117364355       0.06582358390135162      0.01873994139595581
0.0024132775304118725     0.10395108670068949      0.09953706106504578      0.09432603464340594      0.08790703652081783      0.07936063533054885      0.06558610488996228      0.01862175732403442
0.0024691664259430686     0.10366508752110529      0.09925686809222391      0.09405389217242446      0.08764426785242646      0.07910830411743014      0.06534686448459938      0.018503634177007896
0.002526115594763242      0.1033771163708613       0.09897472196569886      0.09377969482982265      0.08737941122721116      0.07885397147928527      0.06510591979291627      0.01838561417193751
0.0025841451514127954     0.10308719260586027      0.09869065019301664      0.09350348605611336      0.0871125167941713       0.0785976902290626       0.06486332739288897      0.018267738529480215
0.0026432755920268976     0.10279533616509096      0.09840467989025337      0.09322530826076333      0.08684363388548581      0.0783395125609977       0.06461914327983258      0.018150047443135912
0.002703527801574751      0.10250156756200379      0.09811683786461319      0.092945202849651        0.08657281099143702      0.07807949000776684      0.0643734228191603       0.018032580051839976
0.002764923061236195      0.10220590787540657      0.09782715069219641      0.09266321025932032      0.08630009574293354      0.07781767340414694      0.06412622070480908      0.017915374415879814
0.0028274830559182557     0.10190837873988881      0.09753564479047902      0.09237936999719998      0.08602553490131581      0.07755411285705982      0.0638775909232217       0.017798467496097467
0.00289122988191429       0.1016090023357878       0.09724234648516034      0.09209372068691726      0.08574917435507177      0.07728885772181768      0.0636275867227335       0.017681895136330283
0.0029561860547084357     0.10130780137870667      0.0969472820711608       0.09180630011783632      0.08547105912304537      0.07702195658434485      0.06337626058819379      0.017565692049028744
0.0030223745169281136     0.10100479910859539      0.0966504778676536       0.09151714529795388      0.08519123336367496      0.07675345724912022      0.06312366422059254      0.017449891803978393
0.003089818646447403      0.10070001927841035      0.0963519602671235       0.09122629250928839      0.08490974038975865      0.07648340673254161      0.06286984852146915      0.01733452682004432
0.003158542264644146      0.1003934861423615       0.09605175577852365      0.09093377736493297      0.08462662268822493      0.07621185126137453      0.06261486358182683      0.01721962835984285
0.0032285696448136974     0.10008522444376726      0.09574989106468498      0.09063963486697975      0.08434192194434514      0.07593883627594125      0.062358758675272505     0.017105226527239635
0.0032999255207422887     0.09977525940252362      0.09544639297419236      0.0903438994645561       0.08405567906982797      0.07566440643766069      0.06210158225507109      0.016991350267557947
0.0033726350954430555     0.09946361670221389      0.09514128856799312      0.0900466051112814       0.08376793423422033      0.07538860564053687      0.061843381954803864     0.01687802737038078
0.0034467240500577574     0.0991503224768609       0.09483460514104393      0.08974778532149956      0.08347872689902353      0.07511147702618673      0.06158420459229082      0.016765284474815508
0.003522218552927433      0.09883540329735083      0.09452637023933394      0.08944747322472157      0.08318809585396175      0.0748330630019835       0.06132409617644499      0.01665314707708772
0.003599145268835073      0.0985188861575361       0.09421661167263304      0.08914570161776589      0.08289607925483994      0.07455340526188464      0.06106310191671273      0.016541639540323082
0.0036775313684236813     0.09820079846004195      0.09390535752333057      0.08884250301417235      0.08260271466243937      0.07427254480950829      0.06080126623476012      0.01643078510637254
0.0037574045377929835     0.09788116800178726      0.09359263615172526      0.08853790969052304      0.08230803908193858      0.07399052198304584      0.06053863277806344      0.016320605909532326
0.003838792988278208      0.09756002295924152      0.09327847619812273      0.08823195372939249      0.08201208900236437      0.07370737648158568      0.060275244435068515     0.016211122992005313
0.003921725466414371      0.09723739187343697      0.09296290658209365      0.08792466705870593      0.08171490043561333      0.07342314739244299      0.06001114335159574      0.016102356320951593
0.004006231264089606      0.09691330363475065      0.09264595649920863      0.0876160814873601       0.08141650895462782      0.07313787321911239      0.05974637094817575      0.015994324806974502
0.004092340228891101      0.096587787467478        0.09232765541557142      0.08730622873702437      0.08111694973034461      0.07285159190947035      0.05948096793801645      0.015887046323887263
0.004180082774647326      0.09626087291421548      0.09200803306043245      0.08699514047009951      0.08081625756707891      0.07256434088388708      0.059214974345318104     0.015780537729607448
0.004269489892170224      0.09593258982007286      0.09168711941714908      0.08668284831386257      0.08051446693605441      0.07227615706292502      0.05894842952367321      0.015674814888031654
0.004360593160201255      0.09560296831673354      0.09136494471273315      0.08636938388088079      0.08021161200682908      0.07198707689433131      0.05868137217430759      0.015569892691740462
0.004453424756565013      0.09527203880637997      0.09104153940620116      0.0860547787858104       0.07990772667642204      0.07169713637906275      0.05841384036393908      0.01546578508539273
0.004548017469534537      0.09493983194550693      0.09071693417592433      0.08573906465873743      0.07960284459597844      0.07140637109611292      0.0581458715420556       0.015362505089670969
0.004644404709412129      0.0946063786286396       0.09039115990614734      0.08542227315524742      0.07929699919486816      0.07111481622594015      0.057877502557437115     0.015260064825647731
0.004742620520329984      0.09427170997197729      0.09006424767282709      0.08510443596342848      0.07899022370214204      0.07082250657232544      0.05760876967376749      0.015158475539445122
0.004842699592274587      0.09393585729697913      0.0897362287289262       0.08478558480802369      0.07868255116531975      0.070529476582527        0.05733970858421272      0.01505774762707197
0.004944677273339301      0.09359885211391489      0.08940713448927237      0.08446575145197713      0.07837401446650895      0.07023576036562591      0.05707035442485606      0.014957890659326189
0.005048589582209357      0.09326072610539678      0.08907699651508566      0.08414496769560285      0.07806464633590204      0.0699413917089852       0.0568007417869138       0.014858913406662348
0.005154473220883726      0.09292151110990823      0.08874584649825823      0.08382326537361501      0.07775447936270874      0.06964640409278072      0.05653090472767147      0.014760823863928706
0.0052623655876383145     0.0925812391053586       0.08841371624546077      0.0835006763502586       0.07744354600362541      0.06935083070257925      0.05626087678010305      0.014663629274890167
0.005372304790235109      0.09223994219266743      0.08808063766213992      0.08317723251276318      0.07713187858895638      0.06905470443997103      0.05599069096115933      0.014567336156460931
0.005484329659381879      0.09189765257940818      0.0877466427364543       0.0828529657633405       0.07681950932651162      0.06875805793129568      0.05572037977872286      0.014471950322578083
0.005598479762447276      0.09155440256352072      0.08741176352320972      0.08252790800993062      0.07650647030343952      0.06846092353449648      0.0554499752372524       0.01437747690766008
0.005714795417436066      0.0912102245171172       0.08707603212782025      0.08220209115588815      0.07619279348614341      0.06816333334418553      0.05517950884214998      0.014283920389598852
0.005833317707229548      0.09086515087039146      0.0867394806903369       0.08187554708878739      0.07587851071844598      0.06786531919499417      0.05490901160289715      0.014191284612244065
0.00595408849409604       0.0905192140956515       0.08640214136957527      0.08154830766851082      0.07556365371817873      0.06756691266331435      0.054638514035019736     0.014099572807347149
0.006077150434476774      0.09017244669149094      0.08606404632736583      0.08122040471476728      0.07524825407234934      0.06726814506753231      0.05436804616094921      0.014008787615938472
0.006202546994052162      0.08982488116711372      0.08572522771295332      0.08089186999416728      0.07493234323106879      0.06696904746687539      0.054097637509856425     0.013918931109120528
0.006330322463093984      0.08947655002683033      0.08538571764756542      0.08056273520698634      0.07461595250038605      0.06666965065899451      0.053827317116538535     0.013830004808263385
0.006460521972108746      0.08912748575473475      0.0850455482091744       0.08023303197370814      0.07429911303419887      0.06636998517640288      0.053557113519441146     0.013742009704597952
0.00659319150777789       0.0887777207995798       0.08470475141745834      0.07990279182144416      0.073981855825379        0.06607008128190463      0.053287054757904226     0.013654946278206891
0.006728377929200352      0.08842728755986468      0.08436335921898926      0.07957204617031406      0.07366421169626022      0.06576996896313582      0.05301716836871369      0.013568814516416408
0.006866128984443262      0.08807621836914512      0.0840214034726628       0.07924082631984705      0.07334621128861264      0.06546967792634142      0.05274748138204206      0.01348361393159924
0.007006493327406631      0.08772454548158139      0.08367891593537033      0.07890916343547227      0.0730278850532259       0.06516923758951637      0.052478020316856416     0.013399343578400086
0.007149520535008036      0.08737230105773228      0.08333592824794225      0.07857708853514482      0.07270926323921294      0.06486867707501748      0.052208811175866336     0.013316002070398982
0.007295261124693224      0.08701951715060935      0.08299247192136393      0.07824463247615002      0.07239037588313091      0.06456802520176241      0.05193987944007787      0.013233587596230566
0.007443766572278972      0.08666622569200233      0.0826485783232774       0.07791182594212454      0.07207125279800611      0.06426731047712111      0.0516712500630071       0.013152097935178558
0.0075950893301344235     0.08631245847908174      0.08230427866478014      0.07757869943032622      0.07175192356235321      0.06396656108859214      0.051402947464603665     0.013071530472265771
0.007749282845707362      0.08595824716129136      0.08195960398753455      0.07724528323917618      0.07143241750924381      0.06366580489535328      0.05113499552491601      0.012991882212862602
0.007906401580401956      0.08560362322754149      0.08161458515118436      0.07691160745609758      0.07111276371549587      0.06336506941977646      0.05086741757752046      0.01291314979683363
0.008066501028814552      0.08524861799370419      0.08126925282109843      0.0765777019456646       0.07079299099103231      0.0630643818389714       0.050600236402721925     0.012835329512246627