% Model:              RWGS_demo_CeO2_cycle1_CO2.mph
% Version:            COMSOL 5.6.0.341
% Date:               Jun 29 2022, 10:21
% Dimension:          1
% Nodes:              1386
% Expressions:        7
% Description:        
% X                       u2-delta_cCO2(c) (1) @ t=0 u2-delta_cCO2(c) (1) @ t=80 u2-delta_cCO2(c) (1) @ t=160 u2-delta_cCO2(c) (1) @ t=240 u2-delta_cCO2(c) (1) @ t=320 u2-delta_cCO2(c) (1) @ t=400 u2-delta_cCO2(c) (1) @ t=436.56
0                         5.61123765507876E-9      2.613426143837777E-4     2.7174866640523876E-4    3.2512723146224665E-4    4.4488277232765383E-4    8.314411951603762E-4     0.009579473830265464
1.0106389363155493E-5     -1.6500433727695274E-9   2.6133113861627477E-4    2.7174509761729304E-4    3.251254426313785E-4     4.4488176144287517E-4    8.314413934413442E-4     0.009579126669344644
2.0404507952446597E-5     4.5106381130199935E-10   2.612961654635121E-4     2.7173421990246693E-4    3.2511998990227E-4       4.4487867980313317E-4    8.314419970457954E-4     0.009578068517985747
3.0897993080352014E-5     -9.139711210082169E-11   2.612367882765393E-4     2.7171574625226014E-4    3.251107283172641E-4     4.4487344469136547E-4    8.314430195315234E-4     0.009576271453858306
4.159055106313618E-5      5.2815064821576385E-11   2.6115210693895136E-4    2.716893877407339E-4     3.2509751110193497E-4    4.4486597174814985E-4    8.314444727359968E-4     0.00957370735932049
5.248595852992239E-5      1.465665783184633E-11    2.610412315240118E-4     2.716548541315117E-4     3.250801898593489E-4     4.4485617500195085E-4    8.314463665259342E-4     0.009570347972514038
6.358806375660837E-5      2.4636133411082284E-11   2.6090328620721054E-4    2.7161185453312975E-4    3.2505861477599707E-4    4.4484396690679107E-4    8.314487085401417E-4     0.009566164941596962
7.490078802507985E-5      2.1887359979988474E-11   2.607374134379267E-4     2.71560098104362E-4      3.2503263484829487E-4    4.4482925838326E-4       8.314515039131443E-4     0.009561129882035954
8.642812700821763E-5      2.2500723506624354E-11   2.6054277836144724E-4    2.7149929481216917E-4    3.2500209812760805E-4    4.448119588664201E-4     8.31454754987769E-4      0.009555214436851703
9.817415218117173E-5      2.222434736243173E-11    2.6031857348491477E-4    2.714291562431054E-4     3.2496685198239034E-4    4.4479197635739764E-4    8.314584610123396E-4     0.009548390339684739
1.1014301225941769E-4     2.2181714798286123E-11   2.6006402358180053E-4    2.713493964632968E-4     3.249267433809225E-4     4.447692174840284E-4     8.314626178281201E-4     0.00954062948052464
1.2233893466408478E-4     2.2076035444129616E-11   2.5977839081593734E-4    2.712597329341676E-4     3.2488161919290437E-4    4.4474358756632637E-4    8.314672175423199E-4     0.009531903973911791
1.347662270150932E-4      2.1985656351031224E-11   2.594609800704861E-4     2.7115988747868774E-4    3.2483132650924784E-4    4.4471499068812065E-4    8.314722481857009E-4     0.009522186229397614
1.4742927865260753E-4     2.188987185958169E-11    2.5911114445970745E-4    2.710495872990312E-4     3.2477571298043795E-4    4.446833297759925E-4     8.314776933672149E-4     0.009511449024020763
1.6033256218736384E-4     2.1794288596055367E-11   2.58728291001771E-4      2.709285660445829E-4     3.247146271790208E-4     4.4464850668534533E-4    8.314835319112937E-4     0.009499665576526664
1.734806350803981E-4      2.1697227348127512E-11   2.5831188641911584E-4    2.707965649275529E-4     3.246479189756707E-4     4.446104222931013E-4     8.314897374887276E-4     0.009486809623036592
1.868781412527545E-4      2.1599312616249478E-11   2.5786146303376223E-4    2.706533338862893E-4     3.2457543993766325E-4    4.445689765986971E-4     8.314962782406607E-4     0.009472855493842702
2.0052981272572078E-4     2.150020439461997E-11    2.5737662472156975E-4    2.704986327907652E-4     3.244970437437239E-4     4.445240688304916E-4     8.315031163953074E-4     0.009457778190987856
2.1444047129218845E-4     2.1400180238995148E-11   2.5685705287725735E-4    2.7033223268749934E-4    3.24412586617695E-4      4.4447559756275595E-4    8.315102078770079E-4     0.009441553466263141
2.286150302197191E-4      2.1299087493709123E-11   2.563025123482887E-4     2.7015391708275216E-4    3.243219277779194E-4     4.4442346083830436E-4    8.315175019165053E-4     0.00942415789924125
2.4305849598591723E-4     2.119691228097409E-11    2.5571285728155646E-4    2.699634832560027E-4     3.2422492990381857E-4    4.443675562977173E-4     8.315249406557479E-4     0.009405568974949529
2.577759700467249E-4      2.109373092862299E-11    2.550880368251199E-4     2.6976074360126473E-4    3.2412145961762534E-4    4.4430778131920173E-4    8.315324587548148E-4     0.009385765160769345
2.7277265063826804E-4     2.0989446292141167E-11   2.544281006303592E-4     2.69545526987304E-4      3.2401138797768375E-4    4.442440331630104E-4     8.31539982998411E-4      0.009364725982146653
2.8805383461287775E-4     2.0884148577149375E-11   2.53733204079884E-4      2.6931768013176843E-4    3.2389459098428747E-4    4.44176209125742E-4      8.31547431910766E-4      0.009342432096688167
3.0362491930995233E-4     2.0777844722541516E-11   2.530036131854277E-4     2.690770689847133E-4     3.2377095009753637E-4    4.441042067008377E-4     8.315547153734532E-4     0.009318865366221582
3.194914044623004E-4      2.0670576361681015E-11   2.5223970907377324E-4    2.6882358010871243E-4    3.2364035276084835E-4    4.4402792374579475E-4    8.315617342540757E-4     0.009294008926396414
3.3565889413866205E-4     2.056223941115931E-11    2.5144199199619854E-4    2.6855712204768706E-4    3.235026929312018E-4     4.43947258655375E-4      8.315683800454235E-4     0.009267847253414284
3.521330987230691E-4      2.0452826932082502E-11   2.5061108478453137E-4    2.682776266782691E-4     3.2335787161390933E-4    4.4386211054510405E-4    8.315745345195552E-4     0.009240366227486696
3.6891983693176727E-4     2.0342463824540857E-11   2.497477356760841E-4     2.679850505338255E-4     3.2320579739547606E-4    4.437723794341458E-4     8.315800693948286E-4     0.009211553192633257
3.860250378683926E-4      2.0231087638489242E-11   2.48852820442895E-4      2.6767937608235953E-4    3.230463869791922E-4     4.436779664394874E-4     8.315848460285213E-4     0.009181397012455645
4.034547431181436E-4      2.0118795518442312E-11   2.479273437467622E-4     2.6736061295658947E-4    3.228795657105876E-4     4.4357877397298295E-4    8.31588715122393E-4      0.00914988812154394
4.212151088816756E-4      2.000542093094637E-11    2.4697243965017546E-4    2.670287991226178E-4     3.227052680971135E-4     4.434747059395422E-4     8.315915164605128E-4     0.009117018572197034
4.3931240814948575E-4     1.9891088776091692E-11   2.459893712263572E-4     2.6668400196796366E-4    3.2252343831704056E-4    4.433656679432574E-4     8.31593078668029E-4      0.009082782076176502
4.577530329175384E-4      1.9775743542727042E-11   2.449795292071427E-4     2.6632631930387923E-4    3.223340307085959E-4     4.4325156749300265E-4    8.315932190037581E-4     0.009047174041235685
4.7654349644493264E-4     1.9659440742003653E-11   2.439444296097465E-4     2.659558802677875E-4     3.221370102446594E-4     4.431323142094698E-4     8.315917431797951E-4     0.009010191602208598
4.956904355543938E-4      1.9542194251709333E-11   2.428857103129109E-4     2.655728461085777E-4     3.219323529809748E-4     4.43007820033349E-4      8.315884452167188E-4     0.008971833646479277
5.152006129764119E-4      1.9424052644101408E-11   2.4180512654015107E-4    2.6517741084609164E-4    3.2172004647821467E-4    4.428779994331278E-4     8.315831073359009E-4     0.008932100833687806
5.350809197378479E-4      1.9304988163604264E-11   2.407045452300638E-4     2.6476980179029885E-4    3.215000901911416E-4     4.427427696084285E-4     8.315754998896863E-4     0.008890995609573104
5.553383775958558E-4      1.918493142127886E-11    2.3958593828863478E-4    2.643502799049985E-4     3.212724958238447E-4     4.426020506939285E-4     8.315653813287319E-4     0.008848522213888902
5.759801415179802E-4      1.906404201168499E-11    2.3845137471943667E-4    2.6391914000682E-4       3.2103728763965833E-4    4.4245576595376007E-4    8.315524982120889E-4     0.008804686682372703
5.970135022093011E-4      1.8942229729201898E-11   2.3730301166108997E-4    2.634767107889055E-4     3.207945027343326E-4     4.423038419740302E-4     8.315365852600565E-4     0.00875949684278293
6.184458886875241E-4      1.8819529268299107E-11   2.3614308435552372E-4    2.630233546508376E-4     3.2054419125387285E-4    4.421462088441061E-4     8.315173654489527E-4     0.008712962305065563
6.402848709069204E-4      1.869594756787052E-11    2.3497389510389322E-4    2.6255946733429875E-4    3.202864165603586E-4     4.419828003304621E-4     8.314945501514473E-4     0.008665094445738245
6.625381624320483E-4      1.857147768902223E-11    2.3379780127383287E-4    2.620854773480244E-4     3.200212553424245E-4     4.4181355403836997E-4    8.314678393183325E-4     0.00861590638662509
6.852136231621974E-4      1.8446091876178627E-11   2.3261720243846623E-4    2.616018451755339E-4     3.197487976641239E-4     4.416384115618274E-4     8.314369217085199E-4     0.00856541296810344
7.083192621075152E-4      1.8320012173944633E-11   2.3143452674665582E-4    2.6110906226509134E-4    3.194691469462427E-4     4.414573186183393E-4     8.314014751583318E-4     0.00851363071705424
7.318632402178076E-4      1.8193002659927515E-11   2.3025221663780515E-4    2.6060764978868417E-4    3.1918241988414947E-4    4.4127022516718406E-4    8.313611668969434E-4     0.008460577809740149
7.558538732649938E-4      1.8065222928687064E-11   2.2907271402643897E-4    2.600981571720812E-4     3.188887462890408E-4     4.4107708551206076E-4    8.313156539012795E-4     0.008406274029856107
7.802996347802566E-4      1.7936790941419645E-11   2.278984451009325E-4     2.5958116039691975E-4    3.1858826885996366E-4    4.4087785837953336E-4    8.312645832942098E-4     0.008350740722022831
8.052091590469014E-4      1.780753322577766E-11    2.2673180488309852E-4    2.590572600691052E-4     3.1828114287695E-4       4.406725069810574E-4     8.312075927786183E-4     0.00829400074101234
8.30591244150007E-4       1.7677539987381863E-11   2.255751417154228E-4     2.5852707926541513E-4    3.1796753581590786E-4    4.4046099905164365E-4    8.311443111066116E-4     0.008236078397007658
8.564548550839145E-4      1.7546658570566365E-11   2.2443074184153727E-4    2.57991261159711E-4      3.1764762688514525E-4    4.402433068614042E-4     8.310743585865435E-4     0.008176999397218844
8.82809126918689E-4       1.7415201225556842E-11   2.2330081425318837E-4    2.5745046643644437E-4    3.1732160648384466E-4    4.4001940720295174E-4    8.309973476152421E-4     0.008116790784180667
9.096633680266289E-4      1.7282973663323986E-11   2.2218747598561767E-4    2.5690537050654383E-4    3.1698967557568236E-4    4.397892813533949E-4     8.309128832437868E-4     0.008055480871069675
9.370270633700102E-4      1.7150066089488547E-11   2.2109273803157942E-4    2.563566605359238E-4     3.166520449882984E-4     4.3955291500955007E-4    8.308205637593616E-4     0.007993099174379945
9.649098778511818E-4      1.7016651976398123E-11   2.2001849204680152E-4    2.5580503230224205E-4    3.1630893463135273E-4    4.3931029818847916E-4    8.307199812936095E-4     0.007929676344300715
9.933216597262328E-4      1.6882537035023404E-11   2.1896649801936285E-4    2.55251186904816E-4      3.1596057264041133E-4    4.390614251046643E-4     8.306107224445025E-4     0.007865244093138931
0.0010222724440834042     1.6747762898727814E-11   2.1793837304991126E-4    2.546958273403205E-4     3.1560719444716917E-4    4.3880629401533977E-4    8.304923689094676E-4     0.0077998351221235385
0.0010517724563875073     1.6612405895344295E-11   2.1693558139812552E-4    2.541396549727293E-4     3.152490417800899E-4     4.3854490703416904E-4    8.303644981257283E-4     0.007733483046929229
0.0010818321160915663     1.647645214708504E-11    2.1595942591717127E-4    2.5358336592491704E-4    3.1488636159899414E-4    4.382772699155768E-4     8.302266839157676E-4     0.007666222322247363
0.0011124620403169952     1.6339984920676898E-11   2.1501104098999024E-4    2.5302764741477746E-4    3.145194049714445E-4     4.380033918106388E-4     8.300784971313549E-4     0.007598088165724017
0.0011436730476035732     1.6202962582756442E-11   2.1409138706485892E-4    2.52473174068818E-4      3.1414842589254366E-4    4.3772328498928315E-4    8.299195062893144E-4     0.007529116481574774
0.0011754761617305807     1.6065440644474904E-11   2.1320124685032804E-4    2.5192060424285984E-4    3.13773680059283E-4      4.3743696453906605E-4    8.297492781998914E-4     0.00745934378417922
0.0012078826156104062     1.5927467678089613E-11   2.12341223225547E-4      2.5137057638298377E-4    3.1339542360271644E-4    4.3714444803148733E-4    8.295673785805591E-4     0.007388807121940771
0.0012409038552560392     1.5789008989131048E-11   2.1151173888553365E-4    2.508237054599863E-4     3.1301391178770177E-4    4.368457551656782E-4     8.293733726502869E-4     0.007317544001687807
0.0012745515438238114     1.5650175599901672E-11   2.10713037715686E-4      2.5028057950524096E-4    3.126293976912914E-4     4.3654090738536044E-4    8.291668257066204E-4     0.007245592313877438
0.0013088375657328527     1.5510925877038062E-11   2.0994518786621175E-4    2.49741756292908E-4      3.1224213086293584E-4    4.3622992747215095E-4    8.28947303671293E-4      0.007172990258850041
0.0013437740308626775     1.5371197370495082E-11   2.092080864798465E-4     2.4920776018844126E-4    3.1185235598110705E-4    4.3591283912238626E-4    8.287143736094779E-4     0.007099776274365959
0.001379373278830424      1.5231281513816697E-11   2.0850146598436897E-4    2.486790792053384E-4     3.114603115166731E-4     4.355896665043449E-4     8.284676042248432E-4     0.007025988964643336
0.0014156478833492168     1.5090879934565038E-11   2.0782490185415614E-4    2.481561622967518E-4     3.110662284083396E-4     4.352604337994545E-4     8.282065663069924E-4     0.006951667031097029
0.0014526106566692355     1.4950207738451127E-11   2.0717782171838367E-4    2.4763941691003516E-4    3.1067032876459094E-4    4.3492516473211257E-4    8.279308331584148E-4     0.0068768492049661595
0.0014902746541030096     1.480929268105058E-11    2.0655951566551228E-4    2.471292068361719E-4     3.102728246066819E-4     4.345838820937753E-4     8.276399809744109E-4     0.006801574181999889
0.001528653178636588      1.4668044556742643E-11   2.059691475974068E-4     2.466258503727309E-4     3.0987391665128483E-4    4.34236607259407E-4      8.273335891875663E-4     0.006725880559356001
0.001567759785628165      1.452665765455663E-11    2.0540576745099737E-4    2.4612961882670287E-4    3.094737931564062E-4     4.338833597042069E-4     8.270112407768107E-4     0.006649806774848829
0.0016076082875958668     1.4385055646659595E-11   2.0486832410548939E-4    2.4564073537071407E-4    3.0907262883545644E-4    4.3352415652388177E-4    8.266725225344468E-4     0.006573391048670902
0.001648212759096342      1.4243287105308866E-11   2.0435567879241445E-4    2.451593742711297E-4     3.086705838456841E-4     4.331590119589293E-4     8.263170252965565E-4     0.00649667132769282
0.0016895875416959344     1.410137978608006E-11    2.0386661880885532E-4    2.446856604961384E-4     3.0826780286897365E-4    4.3278793693263956E-4    8.259443441352432E-4     0.006419685232432139
0.00173174724903613       1.395927123892804E-11    2.0339987134307402E-4    2.442196697087992E-4     3.0786441428515277E-4    4.3241093860710983E-4    8.255540785169838E-4     0.006342470006764975
0.0017747067719951367     1.3817155752882115E-11   2.0295411722828782E-4    2.4376142864850764E-4    3.0746052945423985E-4    4.3202801995075035E-4    8.251458324276401E-4     0.006265062470441474
0.0018184812839473516     1.3674963939003248E-11   2.0252800443588265E-4    2.4331091589700066E-4    3.0705624210677906E-4    4.3163917933561335E-4    8.247192144644824E-4     0.006187498974446553
0.0018630862461226372     1.3532744369548766E-11   2.0212016114879577E-4    2.4286806301944408E-4    3.066516278568479E-4     4.312444101612356E-4     8.242738378983067E-4     0.006109815359237552
0.001908537413067235      1.3390510922306476E-11   2.0172920824788193E-4    2.4243275607114395E-4    3.0624674383612077E-4    4.308437005080268E-4     8.238093207152478E-4     0.006032046915872518
0.0019548508382083176     1.3248208086125146E-11   2.0135377108051328E-4    2.4200483745209778E-4    3.0584162845876534E-4    4.304370328260393E-4     8.233252856321566E-4     0.00595422835002898
0.002002042879524067      1.3106057905609703E-11   2.0099249038289801E-4    2.4158410808335778E-4    3.054363013142436E-4     4.3002438366213785E-4    8.22821360094636E-4      0.005876393748903247
0.0020501302053213557     1.2963977114033298E-11   2.0064403225956984E-4    2.4117032988622833E-4    3.050307631997651E-4     4.29605723431023E-4      8.222971762608805E-4     0.005798576550961217
0.002099129800123006      1.282192407803251E-11    2.003070971404175E-4     2.4076322853280874E-4    3.046249962758707E-4     4.2918101622681226E-4    8.217523709776464E-4     0.005720809518506604
0.0021490589706667624     1.2680079208848838E-11   1.9998042765255464E-4    2.4036249643037688E-4    3.0421896436564483E-4    4.287502196827428E-4     8.211865857461267E-4     0.005643124713014197
0.0021999353520180506     1.2538331484179821E-11   1.9966281537805997E-4    2.3996779591268363E-4    3.0381261337729393E-4    4.283132848815832E-4     8.205994666886998E-4     0.005565553473169447
0.0022517769137987234     1.2396875193054768E-11   1.9935310647558463E-4    2.395787625923615E-4     3.0340587185465756E-4    4.278701563127929E-4     8.199906645175656E-4     0.005488126395543627
0.002304601966533948      1.225555074091389E-11    1.9905020618207064E-4    2.3919500883665817E-4    3.029986516493305E-4     4.274207718851855E-4     8.193598345113268E-4     0.005410873317823861
0.0023584291681195226     1.2114448333377936E-11   1.9875308221262156E-4    2.3881612732770674E-4    3.025908487059442E-4     4.269650629882063E-4     8.187066364993972E-4     0.005333823304513112
0.0024132775304118725     1.1973685931643274E-11   1.984607671059596E-4     2.3844169466398502E-4    3.021823439574786E-4     4.2650295460614635E-4    8.18030734864035E-4      0.005257004634999438
0.0024691664259430686     1.1833235780134288E-11   1.9817235957488022E-4    2.3807127496097008E-4    3.0177300431454E-4       4.260343654864038E-4     8.173317985599865E-4     0.005180444793897546
0.002526115594763242      1.1693042367699746E-11   1.9788702493377108E-4    2.3770442341013165E-4    3.0136268374495595E-4    4.2555920835438826E-4    8.166095011554256E-4     0.005104170463551536
0.0025841451514127954     1.155332080005067E-11    1.9760399468624068E-4    2.3734068975835715E-4    3.009512244298851E-4     4.250773901841656E-4     8.158635208986645E-4     0.0050282075185864115
0.0026432755920268976     1.1413849032582135E-11   1.973225653625274E-4     2.369796216687564E-4     3.005384579837095E-4     4.2458881250750924E-4    8.15093540811232E-4      0.004952581022395042
0.002703527801574751      1.1274918498838105E-11   1.9704209670834416E-4    2.3662076793208586E-4    3.00124206726822E-4      4.240933717771997E-4     8.142992488125583E-4     0.0048773152254378855
0.002764923061236195      1.1136376543152693E-11   1.967620093170086E-4     2.3626368149019805E-4    2.9970828499755603E-4    4.235909597649287E-4     8.134803378761282E-4     0.0048024335652376154
0.0028274830559182557     1.0998209287738092E-11   1.9648178181069093E-4    2.3590792225428037E-4    2.9929050049041367E-4    4.2308146400146796E-4    8.126365062193289E-4     0.004727958667945743
0.00289122988191429       1.0860548571578477E-11   1.9620094766490542E-4    2.3555305968486068E-4    2.988706556050075E-4     4.2256476825177497E-4    8.11767457524766E-4      0.004653912351360779
0.0029561860547084357     1.0723505416976309E-11   1.9591909177258532E-4    2.3519867511857806E-4    2.9844854879485655E-4    4.220407530172929E-4     8.108729012039559E-4     0.004580315629277337
0.0030223745169281136     1.0586920229371799E-11   1.9563584683161134E-4    2.3484436383078983E-4    2.9802397590225627E-4    4.2150929606733084E-4    8.099525526868157E-4     0.004507188717046754
0.003089818646447403      1.0450924847749121E-11   1.9535088964135056E-4    2.3448973681788887E-4    2.975967314628736E-4     4.209702729928502E-4     8.090061337534885E-4     0.004434551038235044
0.003158542264644146      1.031552621100218E-11    1.9506393737712263E-4    2.3413442229709008E-4    2.971666099759185E-4     4.204235577705759E-4     8.08033372895825E-4      0.004362421232263613
0.0032285696448136974     1.0180634113510223E-11   1.9477474390866556E-4    2.337780669273426E-4     2.9673340711698637E-4    4.198690233450375E-4     8.070340057144132E-4     0.004290817162926836
0.0032999255207422887     1.0046533049923312E-11   1.9448309621702964E-4    2.334203367480095E-4     2.962969208920377E-4     4.193065422155168E-4     8.06007775342555E-4      0.004219755927678613
0.0033726350954430555     9.913000975636521E-12    1.9418881095310814E-4    2.3306091785055966E-4    2.958569527250418E-4     4.187359870207463E-4     8.049544329046115E-4     0.004149253867593277
0.0034467240500577574     9.78019748520964E-12     1.9389173117409508E-4    2.3269951678955847E-4    2.9541330845860025E-4    4.181572311211454E-4     8.038737379968755E-4     0.004079326577904503
0.003522218552927433      9.648080945279247E-12    1.9359172328772128E-4    2.3233586075564056E-4    2.949657992725868E-4     4.1757014917499086E-4    8.027654591946203E-4     0.004009988919036211
0.003599145268835073      9.516630539163629E-12    1.9328867421872925E-4    2.31969697520637E-4      2.9451424251374786E-4    4.1697461770073135E-4    8.016293745783457E-4     0.003941255028043562
0.0036775313684236813     9.385998922528671E-12    1.9298248881193664E-4    2.3160079518270288E-4    2.9405846242595846E-4    4.163705156162642E-4     8.004652722798447E-4     0.0038731383303898977
0.0037574045377929835     9.256109767541432E-12    1.9267308747401846E-4    2.3122894172684927E-4    2.9359829078555444E-4    4.157577247622807E-4     7.992729510423492E-4     0.003805651551991758
0.003838792988278208      9.126970013095814E-12    1.9236040405250232E-4    2.308539444322369E-4     2.931335674380073E-4     4.1513613039918795E-4    7.980522207913128E-4     0.003738806731468664
0.003921725466414371      8.998697620388185E-12    1.9204438395239998E-4    2.3047562914488284E-4    2.92664140733985E-4      4.145056216728338E-4     7.968029032139924E-4     0.0036726152325439083
0.004006231264089606      8.871244017161217E-12    1.9172498246874947E-4    2.3009383944185002E-4    2.921898678710094E-4     4.138660920515527E-4     7.955248323438247E-4     0.0036070877565481576
0.004092340228891101      8.744754920186892E-12    1.9140216333280585E-4    2.297084357104004E-4     2.9171061514143143E-4    4.1321743972657504E-4    7.942178551459643E-4     0.0035422343549824636
0.004180082774647326      8.619077673799325E-12    1.9107589745160497E-4    2.2931929416656477E-4    2.912262580904504E-4     4.12559567979906E-4      7.928818321007447E-4     0.0034780644421041496
0.004269489892170224      8.49420533910461E-12     1.9074616182598175E-4    2.2892630583189189E-4    2.9073668159142196E-4    4.1189238551432583E-4    7.915166377828881E-4     0.00341458680750773
0.004360593160201255      8.3702281217235E-12      1.904129386305145E-4     2.2852937549276697E-4    2.9024177984140337E-4    4.1121580674530894E-4    7.901221614342348E-4     0.003351809628672645
0.004453424756565013      8.247173777231609E-12    1.900762144352655E-4     2.2812842065539352E-4    2.8974145628826026E-4    4.105297520543977E-4     7.886983075260333E-4     0.003289740483459757
0.004548017469534537      8.12506312231065E-12     1.897359795577508E-4     2.277233705150275E-4     2.892356234906815E-4     4.098341480070558E-4     7.872449963104572E-4     0.003228386362540617
0.004644404709412129      8.003993301475276E-12    1.8939222752428764E-4    2.2731416495459095E-4    2.887242029257775E-4     4.0912892753339203E-4    7.857621643594243E-4     0.0031677536817503764
0.004742620520329984      7.883874109104738E-12    1.8904495462731402E-4    2.2690075358420408E-4    2.8820712474625365E-4    4.084140300713787E-4     7.842497650883198E-4     0.003107848294354388
0.004842699592274587      7.764691667411228E-12    1.8869415956619673E-4    2.2648309482327378E-4    2.8768432750016226E-4    4.0768940167665996E-4    7.827077692680734E-4     0.0030486755032273294
0.004944677273339301      7.646556998697207E-12    1.8833984315598518E-4    2.260611550445324E-4     2.871557578155298E-4     4.069549951005863E-4     7.811361655204255E-4     0.0029902400729417246
0.005048589582209357      7.529379897341926E-12    1.8798200809517357E-4    2.2563490777707806E-4    2.866213700651668E-4     4.06210769836636E-4      7.795349608017005E-4     0.002932546241769568
0.005154473220883726      7.413139546663672E-12    1.876206587811749E-4     2.2520433297087278E-4    2.8608112600957136E-4    4.0545669214116925E-4    7.779041808747382E-4     0.0028755977335983103
0.0052623655876383145     7.298051052373467E-12    1.872558011658948E-4     2.2476941632990077E-4    2.855349944319921E-4     4.046927350260729E-4     7.762438707704829E-4     0.0028193977697675973
0.005372304790235109      7.184038086638367E-12    1.8688744264425822E-4    2.2433014870777007E-4    2.84982950772103E-4      4.0391887822630035E-4    7.745540952458704E-4     0.002763949080832496
0.005484329659381879      7.071003504943718E-12    1.8651559196324052E-4    2.238865255684494E-4     2.8442497675525147E-4    4.0313510815437326E-4    7.728349392366954E-4     0.0027092539182584927
0.005598479762447276      6.959113840743214E-12    1.8614025915927868E-4    2.234385465077482E-4     2.8386106003411987E-4    4.02341417829237E-4      7.710865083155709E-4     0.002655314066057364
0.005714795417436066      6.848258071734392E-12    1.8576145550584788E-4    2.229862148317996E-4     2.8329119383805473E-4    4.015378067955336E-4     7.693089291596171E-4     0.002602130852369486
0.005833317707229548      6.738519464644099E-12    1.8537919347475645E-4    2.2252953718929214E-4    2.8271537663426133E-4    4.0072428102617963E-4    7.675023500346712E-4     0.0025497051609990346
0.00595408849409604       6.629814752745489E-12    1.849934867078143E-4     2.2206852325491744E-4    2.8213361181241015E-4    3.999008528181025E-4     7.656669413055595E-4     0.0024980374429090573
0.006077150434476774      6.522261897234927E-12    1.8460434999439251E-4    2.216031854581635E-4     2.815459073801582E-4     3.9906754067697836E-4    7.638028959831636E-4     0.0024471277276807537
0.006202546994052162      6.4158400814307015E-12   1.84211799254215E-4      2.2113353874710778E-4    2.809522756860444E-4     3.9822436919695336E-4    7.619104303204956E-4     0.0023969756349425967
0.006330322463093984      6.310466038605966E-12    1.8381585152368873E-4    2.206596003958214E-4     2.803527331565539E-4     3.9737136893766567E-4    7.599897844728365E-4     0.0023475803857706794
0.006460521972108746      6.2062577299570876E-12   1.8341652494825722E-4    2.201813898377175E-4     2.797473000596823E-4     3.9650857629502934E-4    7.580412232363991E-4     0.0022989408140637055
0.00659319150777789       6.103229033271873E-12    1.8301383876961203E-4    2.196989285256079E-4     2.7913600028554864E-4    3.9563603337371134E-4    7.560650368887284E-4     0.0022510553778935603
0.006728377929200352      6.001352192974707E-12    1.8260781331747022E-4    2.1921223981898053E-4    2.785188611508019E-4     3.947537878582902E-4     7.540615421497594E-4     0.002203922170829844
0.006866128984443262      5.9005786368082624E-12   1.8219847000612577E-4    2.1872134888586275E-4    2.7789591322023577E-4    3.9386189288245776E-4    7.52031083291714E-4      0.0021575389332382415
0.007006493327406631      5.800915303666443E-12    1.817858313220913E-4     2.182262826243564E-4     2.772671901465351E-4     3.9296040690457723E-4    7.499740334270984E-4     0.0021119030635488615
0.007149520535008036      5.70238301023096E-12     1.8136992081920628E-4    2.1772706959698185E-4    2.766327285286668E-4     3.9204939358020857E-4    7.478907960110984E-4     0.0020670116294908116
0.007295261124693224      5.6050580843347575E-12   1.8095076310989389E-4    2.1722373997448002E-4    2.759925677846345E-4     3.9112892163749996E-4    7.457818065990003E-4     0.002022861379288278
0.007443766572278972      5.508891953720507E-12    1.8052838385555076E-4    2.167163254883503E-4     2.75346750035009E-4      3.9019906475672855E-4    7.436475349041384E-4     0.001979448752811989
0.0075950893301344235     5.413780534979651E-12    1.8010280975638837E-4    2.1620485939184003E-4    2.7469532000624214E-4    3.8925990144983436E-4    7.414884872151729E-4     0.001936769892678953
0.007749282845707362      5.319925056035402E-12    1.796740685452644E-4     2.156893764246673E-4     2.7403832493765046E-4    3.883115149394198E-4     7.393052092348126E-4     0.0018948206552943103
0.007906401580401956      5.22716592232797E-12     1.7924218897348576E-4    2.1516991278310027E-4    2.7337581450108395E-4    3.8735399304463264E-4    7.370982894154658E-4     0.001853596621825054
0.008066501028814552      5.1356419117354335E-12   1.7880720079974793E-4    2.1464650608948171E-4    2.7270784072674914E-4    3.863874280644816E-4     7.348683628811206E-4     0.0018130931090994508