% Model:              RWGS_demo_CeO2_cycle1_H2.mph
% Version:            COMSOL 5.6.0.341
% Date:               Jun 28 2022, 11:20
% Dimension:          1
% Nodes:              1386
% Expressions:        8
% Description:        
% X                       delta_cH2O(c)-u2 (1) @ t=0 delta_cH2O(c)-u2 (1) @ t=80 delta_cH2O(c)-u2 (1) @ t=160 delta_cH2O(c)-u2 (1) @ t=240 delta_cH2O(c)-u2 (1) @ t=320 delta_cH2O(c)-u2 (1) @ t=400 delta_cH2O(c)-u2 (1) @ t=480 delta_cH2O(c)-u2 (1) @ t=520.97
0                         3.8009545843432636E-6    9.372849577722331E-4     5.167454523574838E-4     3.648197884279364E-4     2.8471939358694354E-4    2.3470557796771707E-4    2.0028470517416408E-4    1.864639163907944E-4
1.0106389363155493E-5     -1.0409423505082852E-6   9.366264309363728E-4     5.164357695666144E-4     3.646264103404559E-4     2.8458347166807063E-4    2.3460357530608045E-4    2.002049060343819E-4     1.8639271767002807E-4
2.0404507952446597E-5     2.738547324301942E-7     9.359575975268278E-4     5.161210461413351E-4     3.644297994577633E-4     2.8444522748856393E-4    2.3449979616970568E-4    2.0012369234580912E-4    1.8632024586415913E-4
3.0897993080352014E-5     -7.283774009424307E-8    9.35278318904019E-4      5.158011991806891E-4     3.642298936506541E-4     2.843046099522545E-4     2.3439419636128722E-4    2.000410246603898E-4     1.8624646343191886E-4
4.159055106313618E-5      1.9317481513864566E-8    9.345884701562057E-4     5.154761606029554E-4     3.640266461328173E-4     2.841615835856015E-4     2.3428674746647088E-4    1.9995687940052576E-4    1.8617134872835062E-4
5.248595852992239E-5      -5.127232246295011E-9    9.338879261678659E-4     5.151458619636201E-4     3.6382000976655643E-4    2.84016112591913E-4      2.3417742077409126E-4    1.9987123271470592E-4    1.860948798447018E-4
6.358806375660837E-5      1.3606086771782134E-9    9.331765616674356E-4     5.148102344744929E-4     3.636099370723303E-4     2.8386816085685523E-4    2.340661872792596E-4     1.9978406048056646E-4    1.8601703461308683E-4
7.490078802507985E-5      -3.6108914023034533E-10  9.324542512796422E-4     5.144692090250369E-4     3.6339638024003584E-4    2.837176919543369E-4     2.3395301768784627E-4    1.996953383062161E-4     1.859377906058765E-4
8.642812700821763E-5      9.582273927647876E-11    9.317208695757209E-4     5.141227162001188E-4     3.631792911393261E-4     2.8356466915216427E-4    2.3383788241920084E-4    1.9960504153372638E-4    1.8585712513722458E-4
9.817415218117173E-5      -2.542928246581722E-11   9.309762911270045E-4     5.137706863036981E-4     3.6295862133058077E-4    2.8340905541873046E-4    2.3372075161100236E-4    1.995131452402349E-4     1.8577501526628043E-4
1.1014301225941769E-4     6.74715347476337E-12     9.302203905619463E-4     5.13413049380046E-4      3.627343220780829E-4     2.832508134312378E-4     2.3360159512225004E-4    1.994196242408805E-4     1.8569143779873648E-4
1.2233893466408478E-4     -1.792742258084016E-12   9.294530426212366E-4     5.130497352369423E-4     3.6250634436166274E-4    2.8308990558249814E-4    2.334803825401674E-4     1.9932445309321645E-4    1.856063692877441E-4
1.347662270150932E-4      4.737172771564734E-13    9.286741222170256E-4     5.12680673470399E-4      3.622746388896869E-4     2.8292629398772584E-4    2.333570831843379E-4     1.9922760609888956E-4    1.8551978603949942E-4
1.4742927865260753E-4     -1.2725913123854196E-13  9.278835044929032E-4     5.123057934889597E-4     3.620391561131517E-4     2.8275994049643816E-4    2.3323166611241564E-4    1.9912905730792158E-4    1.8543166411297274E-4
1.6033256218736384E-4     3.1925966048357984E-14   9.270810648861275E-4     5.119250245402621E-4     3.617998462414271E-4     2.825908066988875E-4     2.331041001252393E-4     1.9902878052277528E-4    1.8534197932527918E-4
1.734806350803981E-4      -1.0149372390699102E-14  9.262666791897203E-4     5.11538295737371E-4      3.61556659255656E-4      2.824188539363448E-4     2.3297435377478415E-4    1.9892674930289955E-4    1.852507072553633E-4
1.868781412527545E-4      3.6944866653801367E-16   9.254402236200665E-4     5.111455360856873E-4     3.6130954492525486E-4    2.822440433104187E-4     2.3284239536859597E-4    1.988229369682057E-4     1.8515782324642766E-4
2.0052981272572078E-4     -1.0330752637892349E-15  9.246015748812716E-4     5.107466745145478E-4     3.6105845282369264E-4    2.82066335695004E-4      2.3270819297946388E-4    1.9871731660554837E-4    1.850633024106374E-4
2.1444047129218845E-4     -1.0330752637892349E-15  9.237506102344681E-4     5.103416399045574E-4     3.608033323476839E-4     2.8188569174628086E-4    2.3257171445172087E-4    1.9860986107401307E-4    1.8496711963406076E-4
2.286150302197191E-4      -1.0330752637892349E-15  9.228872075687303E-4     5.099303611182868E-4     3.6054413273279434E-4    2.817020719151145E-4     2.3243292740941085E-4    1.9850054300845493E-4    1.848692495808324E-4
2.4305849598591723E-4     -1.0330752637892349E-15  9.220112454705956E-4     5.095127670328714E-4     3.6028080307305005E-4    2.8151543645805327E-4    2.3229179926479576E-4    1.9838933482812376E-4    1.847696666987808E-4
2.577759700467249E-4      -1.0330752637892349E-15  9.211226032981024E-4     5.090887865718194E-4     3.6001329233996404E-4    2.813257454510193E-4     2.3214829722620345E-4    1.9827620874199314E-4    1.8466834522475745E-4
2.7277265063826804E-4     -1.0330752637892349E-15  9.20221161256618E-4      5.086583487392896E-4     3.5974154940175E-4       2.8113295880251993E-4    2.3200238830947684E-4    1.9816113675528296E-4    1.8456525919047923E-4
2.8805383461287775E-4     -1.0330752637892349E-15  9.193068004722735E-4     5.082213826545709E-4     3.594655230448815E-4     2.8093703626686645E-4    2.3185403934600918E-4    1.9804409067691875E-4    1.8446038242873886E-4
3.0362491930995233E-4     -1.0330752637892349E-15  9.183794030719061E-4     5.077778175860276E-4     3.5918516199526934E-4    2.8073793745909265E-4    2.317032169938532E-4     1.9792504212792772E-4    1.8435368858016332E-4
3.194914044623004E-4      -1.0330752637892349E-15  9.174388522615526E-4     5.073275829889923E-4     3.589004149410005E-4     2.805356218694016E-4     2.3154988774861524E-4    1.978039625482944E-4     1.8424515109930623E-4
3.3565889413866205E-4     -1.0330752637892349E-15  9.164850324061558E-4     5.068706085442007E-4     3.5861123055370286E-4    2.803300488792987E-4     2.3139401795305853E-4    1.9768082320625185E-4    1.8413474326309937E-4
3.521330987230691E-4      -1.0330752637892349E-15  9.155178291122834E-4     5.06406824192944E-4      3.5831755751145056E-4    2.8012117777685697E-4    2.3123557381134197E-4    1.9755559520619886E-4    1.840224381788394E-4
3.6891983693176727E-4     -1.0330752637892349E-15  9.14537129310708E-4      5.059361601786744E-4     3.5801934452517337E-4    2.7990896777469604E-4    2.3107452139958795E-4    1.974282494987198E-4     1.8390820879034264E-4
3.860250378683926E-4      -1.0330752637892349E-15  9.135428213404295E-4     5.054585470865708E-4     3.577165403636992E-4     2.796933780257957E-4     2.3091082667959367E-4    1.972987568903059E-4     1.8379202788879057E-4
4.034547431181436E-4      -1.0330752637892349E-15  9.125347950358909E-4     5.049739158841174E-4     3.574090938764443E-4     2.7947436764262645E-4    2.3074445551074518E-4    1.9716708805324334E-4    1.8367386812020298E-4
4.212151088816756E-4      -1.0330752637892349E-15  9.115129418118123E-4     5.044821979638889E-4     3.570969540222235E-4     2.792518957142262E-4     2.3057537366447112E-4    1.970332135362851E-4     1.835537019956729E-4
4.3931240814948575E-4     -1.0330752637892349E-15  9.104771547530643E-4     5.03983325185281E-4      3.567800698964646E-4     2.790259213272042E-4     2.3040354683861314E-4    1.9689710377568392E-4    1.8343150190098384E-4
4.577530329175384E-4      -1.0330752637892349E-15  9.094273287014315E-4     5.034772299193704E-4     3.5645839075678504E-4    2.7879640358349084E-4    2.302289406724764E-4     1.9675872910705078E-4    1.8330724010560961E-4
4.7654349644493264E-4     -1.0330752637892349E-15  9.083633603482605E-4     5.029638450925675E-4     3.5613186605364805E-4    2.785633016212166E-4     2.3005152076133878E-4    1.9661805977582575E-4    1.8318088877509325E-4
4.956904355543938E-4      -1.0330752637892349E-15  9.072851483221261E-4     5.024431042318089E-4     3.5580044545838185E-4    2.78326574635987E-4      2.2987125267209113E-4    1.9647506595180803E-4    1.8305241998112232E-4
5.152006129764119E-4      -1.0330752637892349E-15  9.061925932833809E-4     5.01914941511146E-4      3.554640788937316E-4     2.780861819024552E-4     2.2968810196067474E-4    1.963297177405704E-4     1.8292180571413685E-4
5.350809197378479E-4      -1.0330752637892349E-15  9.050855980159353E-4     5.013792917991297E-4     3.551227165632595E-4     2.7784208279535427E-4    2.2950203418817955E-4    1.9618198519706642E-4    1.8278901789296753E-4
5.553383775958558E-4      -1.0330752637892349E-15  9.039640675190044E-4     5.008360907050036E-4     3.5477630898349266E-4    2.775942368116735E-4     2.2931301493795547E-4    1.9603183834005639E-4    1.8265402837959466E-4
5.759801415179802E-4      -1.0330752637892349E-15  9.028279091018027E-4     5.002852746273587E-4     3.544248070149608E-4     2.773426035955623E-4     2.2912100983289024E-4    1.9587924716455568E-4    1.8251680899041695E-4
5.970135022093011E-4      -1.0330752637892349E-15  9.016770324796267E-4     4.997267808044339E-4     3.5406816189472584E-4    2.770871429611174E-4     2.2892598455601793E-4    1.957241816587449E-4     1.8237733151058033E-4
6.184458886875241E-4      -1.0330752637892349E-15  9.005113498654557E-4     4.991605473621888E-4     3.5370632526963985E-4    2.7682781491584346E-4    2.2872790486584693E-4    1.955666118183194E-4     1.822355677070439E-4
6.402848709069204E-4      -1.0330752637892349E-15  8.993307760671171E-4     4.985865133653108E-4     3.533392492295617E-4     2.765645796865973E-4     2.2852673661914735E-4    1.9540650766077666E-4    1.820914893421316E-4
6.625381624320483E-4      -1.0330752637892349E-15  8.981352285815924E-4     4.980046188670442E-4     3.5296688634217643E-4    2.762973977438951E-4     2.283224457885688E-4     1.952438392429645E-4     1.8194506818939443E-4
6.852136231621974E-4      -1.0330752637892349E-15  8.969246276911355E-4     4.974148049614463E-4     3.525891896867736E-4     2.7602622982897396E-4    2.2811499848335998E-4    1.9507857667731832E-4    1.8179627604807125E-4
7.083192621075152E-4      -1.0330752637892349E-15  8.956988965594867E-4     4.968170138347772E-4     3.522061128887963E-4     2.757510369789107E-4     2.2790436097054612E-4    1.9491069014819506E-4    1.8164508475772279E-4
7.318632402178076E-4      -1.0330752637892349E-15  8.944579613239592E-4     4.962111888171458E-4     3.5181761015708884E-4    2.7547178055343374E-4    2.2769049969534327E-4    1.9474014993012267E-4    1.814914662149683E-4
7.558538732649938E-4      -1.0330752637892349E-15  8.932017511953383E-4     4.955972744360576E-4     3.514236363195977E-4     2.7518842226220697E-4    2.2747338130369582E-4    1.9456692640422435E-4    1.8133539238900098E-4
7.802996347802566E-4      -1.0330752637892349E-15  8.919301985498285E-4     4.949752164677065E-4     3.5102414685918987E-4    2.749009241939035E-4     2.272529726638703E-4     1.9439099007802912E-4    1.8117683533881018E-4
8.052091590469014E-4      -1.0330752637892349E-15  8.906432390232352E-4     4.943449619922227E-4     3.506190979512408E-4     2.7460924884187277E-4    2.270292408891872E-4     1.9421231160257624E-4    1.8101576723008467E-4
8.30591244150007E-4       -1.0330752637892349E-15  8.893408116071519E-4     4.937064594455406E-4     3.502084465001054E-4     2.743133591346786E-4     2.2680215335945525E-4    1.9403086179245466E-4    1.808521603521157E-4
8.564548550839145E-4      -1.0330752637892349E-15  8.880228587405115E-4     4.930596586720445E-4     3.497921501775317E-4     2.7401321846500654E-4    2.2657167774784576E-4    1.9384661164469075E-4    1.8068598713671252E-4
8.82809126918689E-4       -1.0330752637892349E-15  8.866893264040943E-4     4.924045109798159E-4     3.4937016746076216E-4    2.7370879071674653E-4    2.263377820405435E-4     1.9365953235868372E-4    1.805172201744462E-4
9.096633680266289E-4      -1.0330752637892349E-15  8.853401642099912E-4     4.917409691949648E-4     3.4894245767035786E-4    2.7340004029646064E-4    2.2610043456191414E-4    1.934695953558288E-4     1.8034583223560524E-4
9.370270633700102E-4      -1.0330752637892349E-15  8.83975325492968E-4      4.910689877123536E-4     3.485089810078071E-4     2.7308693216308855E-4    2.2585960400091365E-4    1.9327677230101398E-4    1.8017179628671692E-4
9.649098778511818E-4      -1.0330752637892349E-15  8.825947674011292E-4     4.903885225512813E-4     3.480696985950771E-4     2.727694318579582E-4     2.2561525943358418E-4    1.9308103512214597E-4    1.7999508551106574E-4
9.933216597262328E-4      -1.0330752637892349E-15  8.811984509834517E-4     4.896995314089825E-4     3.4762457251388823E-4    2.724475055343664E-4     2.2536737034840187E-4    1.928823560323062E-4     1.7981567332851084E-4
0.0010222724440834042     -1.0330752637892349E-15  8.797863412768406E-4     4.890019737119958E-4     3.4717356584280934E-4    2.7212111998915767E-4    2.2511590667271403E-4    1.9268070754997757E-4    1.7963353341395039E-4
0.0010517724563875073     -1.0330752637892349E-15  8.783584073915399E-4     4.882958106713145E-4     3.4671664269795427E-4    2.717902426932206E-4     2.2486083879581092E-4    1.9247606252221355E-4    1.794486397186032E-4
0.0010818321160915663     -1.0330752637892349E-15  8.769146225937607E-4     4.875810053330959E-4     3.462537682704797E-4     2.7145484182246327E-4    2.2460213759722264E-4    1.9226839414477476E-4    1.7926096649022866E-4
0.0011124620403169952     -1.0330752637892349E-15  8.754549643902182E-4     4.8685752263145227E-4    3.4578490886611607E-4    2.7111488628928093E-4    2.243397744707415E-4     1.9205767598639428E-4    1.790704882923752E-4
0.0011436730476035732     -1.0330752637892349E-15  8.739794146052221E-4     4.8612532944062453E-4    3.453100319435465E-4     2.707703457730179E-4     2.24073721351227E-4      1.9184388200888663E-4    1.7887718002720238E-4
0.0011754761617305807     -1.0330752637892349E-15  8.7248795946087E-4       4.853843946242553E-4     3.448291061538891E-4     2.7042119075085247E-4    2.2380395074084874E-4    1.9162698659125343E-4    1.7868101695490274E-4
0.0012078826156104062     -1.0330752637892349E-15  8.709805896512796E-4     4.846346890891792E-4     3.443421013767378E-4     2.7006739253020856E-4    2.2353043573722364E-4    1.9140696455136053E-4    1.784819747167321E-4
0.0012409038552560392     -1.0330752637892349E-15  8.694573004170841E-4     4.838761858306645E-4     3.438489887617399E-4     2.6970892327913415E-4    2.2325315005394114E-4    1.9118379117049472E-4    1.78280029354487E-4
0.0012745515438238114     -1.0330752637892349E-15  8.679180916170148E-4     4.831088599835248E-4     3.4334974076422053E-4    2.6934575605699895E-4    2.2297206805280134E-4    1.9095744221408334E-4    1.7807515733153645E-4
0.0013088375657328527     -1.0330752637892349E-15  8.663629677948606E-4     4.823326888712537E-4     3.428443311828053E-4     2.689778648466909E-4     2.2268716476907258E-4    1.9072789395527256E-4    1.7786733555739953E-4
0.0013437740308626775     -1.0330752637892349E-15  8.647919382457278E-4     4.815476520512868E-4     3.4233273519686247E-4    2.686052245852791E-4     2.2239841593615917E-4    1.9049512319999073E-4    1.7765654140716042E-4
0.001379373278830424      -1.0330752637892349E-15  8.632050170810299E-4     4.807537313615412E-4     3.418149294042924E-4     2.6822781119290734E-4    2.2210579801320435E-4    1.9025910730839646E-4    1.7744275274348548E-4
0.0014156478833492168     -1.0330752637892349E-15  8.616022232860177E-4     4.799509109650879E-4     3.4129089185557654E-4    2.678456016044911E-4     2.2180928821097234E-4    1.9001982421758962E-4    1.772259479399449E-4
0.0014526106566692355     -1.0330752637892349E-15  8.599835807781217E-4     4.7913917739497713E-4    3.407606020900955E-4     2.6745857379996407E-4    2.2150886451830637E-4    1.8977725246552973E-4    1.7700610590053872E-4
0.0014902746541030096     -1.0330752637892349E-15  8.583491184614156E-4     4.7831851959563576E-4    3.4022404117215604E-4    2.670667068350105E-4     2.2120450572782335E-4    1.8953137121515556E-4    1.7678320608282422E-4
0.001528653178636588      -1.0330752637892349E-15  8.5669887027566E-4       4.7748892896436884E-4    3.396811917243739E-4     2.6666998086675997E-4    2.2089619146117845E-4    1.8928216027433442E-4    1.7655722851934313E-4
0.001567759785628165      -1.0330752637892349E-15  8.550328752460618E-4     4.7665039939079334E-4    3.391320379606197E-4     2.6626837718640717E-4    2.2058390219518997E-4    1.8902960012157077E-4    1.7632815384014539E-4
0.0016076082875958668     -1.0330752637892349E-15  8.533511775255659E-4     4.7580292729541146E-4    3.3857656571981143E-4    2.658618782475017E-4     2.2026761928790883E-4    1.8877367192786376E-4    1.7609596329304367E-4
0.001648212759096342      -1.0330752637892349E-15  8.516538264343662E-4     4.749465116683019E-4     3.3801476249789575E-4    2.654504676910113E-4     2.199473250022177E-4     1.8851435757878676E-4    1.7586063876617875E-4
0.0016895875416959344     -1.0330752637892349E-15  8.499408764990474E-4     4.740811541020448E-4     3.374466174771648E-4     2.650341303771231E-4     2.1962300253077632E-4    1.8825163969686531E-4    1.7562216280752468E-4
0.00173174724903613       -1.0330752637892349E-15  8.482123874845662E-4     4.7320685882295405E-4    3.368721215583695E-4     2.6461285240680227E-4    2.1929463602084892E-4    1.87985501663393E-4      1.7538051864816884E-4
0.0017747067719951367     -1.0330752637892349E-15  8.464684244218826E-4     4.723236327286509E-4     3.362912673888427E-4     2.641866211537669E-4     2.1896221059668902E-4    1.8771592764170453E-4    1.7513569022278852E-4
0.0018184812839473516     -1.0330752637892349E-15  8.447090576349167E-4     4.7143148541501506E-4    3.357040493901717E-4     2.637554252846175E-4     2.186257123852342E-4     1.8744290259638946E-4    1.7488766218801133E-4
0.0018630862461226372     -1.0330752637892349E-15  8.429343627618935E-4     4.7053042920250365E-4    3.351104637846422E-4     2.6331925478786933E-4    2.1828512853627746E-4    1.8716641231544817E-4    1.7463641994489715E-4
0.001908537413067235      -1.0330752637892349E-15  8.411444207724744E-4     4.6962047916508654E-4    3.3451050862272347E-4    2.6287810099575454E-4    2.1794044724601086E-4    1.868864434316081E-4     1.7438194965852666E-4
0.0019548508382083176     -1.0330752637892349E-15  8.39339317979769E-4      4.6870165315335277E-4    3.339041838060913E-4     2.6243195660727997E-4    2.1759165777936185E-4    1.8660298344110732E-4    1.7412423827652818E-4
0.002002042879524067      -1.0330752637892349E-15  8.375191460507463E-4     4.6777397181633346E-4    3.3329149111117895E-4    2.619808157117917E-4     2.172387504896095E-4     1.8631602072437248E-4    1.7386327354925596E-4
0.0020501302053213557     -1.0330752637892349E-15  8.356840020105026E-4     4.668374586228527E-4     3.326724342103127E-4     2.6152467380980565E-4    2.168817168400547E-4     1.8602554456575993E-4    1.7359904404860155E-4
0.002099129800123006      -1.0330752637892349E-15  8.338339882435382E-4     4.6589213987775074E-4    3.32047018693743E-4      2.6106352783293596E-4    2.1652054942308124E-4    1.857315451710556E-4     1.733315391854659E-4
0.0021490589706667624     -1.0330752637892349E-15  8.319692124898158E-4     4.6493804473832917E-4    3.314152520874636E-4     2.6059737616427464E-4    2.1615524197882152E-4    1.854340136877089E-4     1.7306074922805725E-4
0.0021999353520180506     -1.0330752637892349E-15  8.300897878366041E-4     4.639752052288115E-4     3.307771438719534E-4     2.601262186561412E-4     2.1578578941452292E-4    1.851329422197026E-4     1.727866653199739E-4
0.0022517769137987234     -1.0330752637892349E-15  8.281958327066644E-4     4.630036562494333E-4     3.3013270549803186E-4    2.5965005664833896E-4    2.1541218782069466E-4    1.8482832384698195E-4    1.7250927949456762E-4
0.002304601966533948      -1.0330752637892349E-15  8.262874708421797E-4     4.6202343558703757E-4    3.2948195040014006E-4    2.591688929839617E-4     2.1503443448899623E-4    1.8452015264059513E-4    1.722285846940258E-4
0.0023584291681195226     -1.0330752637892349E-15  8.243648312839212E-4     4.6103458392202784E-4    3.2882489401266785E-4    2.5868273202347275E-4    2.1465252792683687E-4    1.8420842367907614E-4    1.719445747830478E-4
0.0024132775304118725     -1.0330752637892349E-15  8.22428048345758E-4      4.600371448304566E-4     3.2816155377766304E-4    2.5819157966098377E-4    2.1426646787279374E-4    1.838931330627458E-4     1.7165724456452702E-4
0.0024691664259430686     -1.0330752637892349E-15  8.204772615857878E-4     4.5903116478793887E-4    3.274919491586606E-4     2.57695443335669E-4      2.1387625531070487E-4    1.8357427792919934E-4    1.7136658979364366E-4
0.002526115594763242      -1.0330752637892349E-15  8.185126157729365E-4     4.580166931681881E-4     3.2681610164479735E-4    2.5719433204395015E-4    2.1348189248213134E-4    1.8325185646417275E-4    1.710726071911181E-4
0.0025841451514127954     -1.0330752637892349E-15  8.165342608492838E-4     4.569937822403447E-4     3.261340347611649E-4     2.566882563499323E-4     2.1308338289924983E-4    1.829258679180018E-4     1.7077529445624212E-4
0.0026432755920268976     -1.0330752637892349E-15  8.14542351887812E-4      4.559624871628004E-4     3.2544577407357667E-4    2.561772283927802E-4     2.126807313538176E-4     1.8259631261443449E-4    1.7047465027933417E-4
0.002703527801574751      -1.0330752637892349E-15  8.125370490466889E-4     4.549228659764884E-4     3.247513471886926E-4     2.5566126189701527E-4    2.122739439300511E-4     1.822631919625728E-4     1.7017067435325106E-4
0.002764923061236195      -1.0330752637892349E-15  8.10518517519513E-4      4.538749795938088E-4     3.24050783757128E-4      2.551403721784348E-4     2.1186302801150247E-4    1.8192650846754477E-4    1.698633673828734E-4
0.0028274830559182557     -1.0330752637892349E-15  8.084869274800587E-4     4.528188917850423E-4     3.2334411547475794E-4    2.5461457614774086E-4    2.114479922894555E-4     1.8158626573944875E-4    1.6955273109571511E-4
0.00289122988191429       -1.0330752637892349E-15  8.064424540256444E-4     4.517546691660615E-4     3.2263137607946996E-4    2.540838923164798E-4     2.110288467695523E-4     1.812424685017633E-4     1.692387682510274E-4
0.0029561860547084357     -1.0330752637892349E-15  8.043852771141349E-4     4.5068238117744464E-4    3.2191260134709077E-4    2.535483407976463E-4     2.10605602777518E-4      1.8089512259826523E-4    1.689214826471469E-4
0.0030223745169281136     -1.0330752637892349E-15  8.023155814987325E-4     4.496021000654077E-4     3.2118782908634874E-4    2.530079433070778E-4     2.1017827296478803E-4    1.8054423500107192E-4    1.6860087912907995E-4
0.003089818646447403      -1.0330752637892349E-15  8.00233556658439E-4      4.48513900861168E-4      3.2045709913162274E-4    2.5246272316512E-4       2.0974687130945885E-4    1.8018981381435345E-4    1.6827696359465044E-4
0.003158542264644146      -1.0330752637892349E-15  7.981393967250901E-4     4.474178613530083E-4     3.197204533342546E-4     2.519127052924078E-4     2.0931141312037493E-4    1.798318682801267E-4     1.6794974300083504E-4
0.0032285696448136974     -1.0330752637892349E-15  7.960333004067219E-4     4.4631406206107477E-4    3.1897793555142606E-4    2.513579162077076E-4     2.088719150384541E-4     1.7947040878140558E-4    1.6761922536645546E-4
0.0032999255207422887     -1.0330752637892349E-15  7.939154709083046E-4     4.452025862082473E-4     3.18229591633315E-4      2.507983840242464E-4     2.084283950353552E-4     1.7910544684498347E-4    1.672854197790133E-4
0.0033726350954430555     -1.0330752637892349E-15  7.917861158478687E-4     4.4408351968695803E-4    3.1747546940977256E-4    2.5023413844187103E-4    2.079808724131868E-4     1.7873699514309171E-4    1.669483363924626E-4
0.0034467240500577574     -1.0330752637892349E-15  7.896454471699177E-4     4.429569510258427E-4     3.167156186736145E-4     2.4966521074129555E-4    2.0752936780044778E-4    1.7836506749418363E-4    1.6660798643358676E-4
0.003522218552927433      -1.0330752637892349E-15  7.874936810577417E-4     4.418229713545399E-4     3.1595009116292677E-4    2.490916337756083E-4     2.0707390315251317E-4    1.7798967886144962E-4    1.6626438219996542E-4
0.003599145268835073      -1.0330752637892349E-15  7.853310378394332E-4     4.4068167436296657E-4    3.15178940542421E-4      2.485134419592458E-4     2.0661450174205842E-4    1.7761084535341393E-4    1.659175370619867E-4
0.0036775313684236813     -1.0330752637892349E-15  7.831577418938203E-4     4.395331562619606E-4     3.144022223819515E-4     2.479306712570642E-4     2.061511881545075E-4     1.772285842195423E-4     1.6556746545957207E-4
0.0037574045377929835     -1.0330752637892349E-15  7.809740215539186E-4     4.3837751574220263E-4    3.136199941333115E-4     2.4734335917021844E-4    2.056839882835157E-4     1.7684291384795214E-4    1.6521418290113554E-4
0.003838792988278208      -1.0330752637892349E-15  7.787801090051519E-4     4.3721485392751724E-4    3.1283231510690485E-4    2.4675154472472705E-4    2.0521292931968693E-4    1.7645385376062472E-4    1.6485770596117583E-4
0.003921725466414371      -1.0330752637892349E-15  7.765762401839675E-4     4.360452743294857E-4     3.1203924644632175E-4    2.461552684535004E-4     2.047380397423651E-4     1.7606142460754176E-4    1.6449805227493342E-4
0.004006231264089606      -1.0330752637892349E-15  7.74362654674423E-4      4.348688827987904E-4     3.1124085109884153E-4    2.455545723812069E-4     2.0425934930914935E-4    1.7566564816091923E-4    1.6413524053405376E-4
0.004092340228891101      -1.0330752637892349E-15  7.721395956007057E-4     4.3368578747539355E-4    3.1043719378850976E-4    2.4494950000411575E-4    2.0377688904450741E-4    1.752665473071166E-4     1.637692904811472E-4
0.004180082774647326      -1.0330752637892349E-15  7.699073095194242E-4     4.3249609873667605E-4    3.0962834098565567E-4    2.4434009627258974E-4    2.032906912256549E-4     1.7486414603938571E-4    1.6340022290295408E-4
0.004269489892170224      -1.0330752637892349E-15  7.676660463102163E-4     4.3129992914325843E-4    3.0881436087402264E-4    2.4372640757080316E-4    2.028007893696629E-4     1.744584694458387E-4     1.6302805962236516E-4
0.004360593160201255      -1.0330752637892349E-15  7.654160590644145E-4     4.300973933842947E-4     3.079953233187868E-4     2.4310848169337151E-4    2.0230721821990622E-4    1.7404954370191933E-4    1.626528234891858E-4
0.004453424756565013      -1.0330752637892349E-15  7.631576039726327E-4     4.2888860822250935E-4    3.0717129983103E-4       2.424863678231401E-4     2.0181001372703705E-4    1.7363739605730927E-4    1.6227453837153183E-4
0.004548017469534537      -1.0330752637892349E-15  7.608909402112181E-4     4.276736924331212E-4     3.063423635324622E-4     2.418601165069742E-4     2.013092130339067E-4     1.732220548239377E-4     1.6189322914471338E-4
0.004644404709412129      -1.0330752637892349E-15  7.586163298275092E-4     4.2645276674604937E-4    3.0550858911997103E-4    2.4122977963109138E-4    2.0080485445712892E-4    1.7280354936365788E-4    1.615089216805629E-4
0.004742620520329984      -1.0330752637892349E-15  7.563340376259831E-4     4.2522595378628736E-4    3.04670052824009E-4      2.4059541039381932E-4    2.0029697746877517E-4    1.7238191007264841E-4    1.611216428341472E-4
0.004842699592274587      -1.0330752637892349E-15  7.540443310505643E-4     4.2399337801126563E-4    3.03826832372206E-4      2.3995706327911703E-4    1.9978562267560646E-4    1.7195716836777147E-4    1.607314204321933E-4
0.004944677273339301      -1.0330752637892349E-15  7.517474800700884E-4     4.22755165646653E-4      3.029790069483465E-4     2.393147940276813E-4     1.9927083179734767E-4    1.7152935666944757E-4    1.6033828325824617E-4
0.005048589582209357      -1.0330752637892349E-15  7.4944375706135E-4       4.215114446256066E-4     3.0212665715097925E-4    2.38668659607498E-4      1.9875264764661338E-4    1.7109850838589735E-4    1.5994226103721587E-4
0.005154473220883726      -1.0330752637892349E-15  7.471334366930191E-4     4.202623445210274E-4     3.012698649498338E-4     2.3801871818462245E-4    1.982311141052115E-4     1.706646578959331E-4     1.595433844231095E-4
0.0052623655876383145     -1.0330752637892349E-15  7.448167958093443E-4     4.19007996481785E-4      3.0040871364472865E-4    2.373650290915172E-4     1.9770627610160574E-4    1.702278405299254E-4     1.5914168497881132E-4
0.005372304790235109      -1.0330752637892349E-15  7.424941133139379E-4     4.177485331659722E-4     2.9954328782014206E-4    2.367076527952025E-4     1.9717817958535278E-4    1.6978809255074195E-4    1.5873719516158735E-4
0.005484329659381879      -1.0330752637892349E-15  7.401656700556508E-4     4.1648408867433345E-4    2.98673673301289E-4      2.360466508628395E-4     1.9664687150340587E-4    1.693454511334791E-4     1.5832994830441288E-4
0.005598479762447276      -1.0330752637892349E-15  7.378317487124406E-4     4.152147984822496E-4     2.977999571062914E-4     2.3538208593220505E-4    1.9611239977368466E-4    1.6889995434794108E-4    1.579199785992358E-4